# vtk DataFile Version 3.0
#This file was generated by the deal.II library on 2025/4/6 at 13:45:08
ASCII
DATASET UNSTRUCTURED_GRID

FIELD FieldData 1
TIME 1 1 double
0.664062
POINTS 32 double
0 0 0
0.125 0 0
0.125 0 0
0.25 0 0
0.25 0 0
0.375 0 0
0.375 0 0
0.5 0 0
0.5 0 0
0.625 0 0
0.625 0 0
0.75 0 0
0.75 0 0
0.875 0 0
0.875 0 0
1 0 0
1 0 0
1.125 0 0
1.125 0 0
1.25 0 0
1.25 0 0
1.375 0 0
1.375 0 0
1.5 0 0
1.5 0 0
1.625 0 0
1.625 0 0
1.75 0 0
1.75 0 0
1.875 0 0
1.875 0 0
2 0 0

CELLS 16 48
2	0	1
2	2	3
2	4	5
2	6	7
2	8	9
2	10	11
2	12	13
2	14	15
2	16	17
2	18	19
2	20	21
2	22	23
2	24	25
2	26	27
2	28	29
2	30	31

CELL_TYPES 16
 3 3 3 3 3 3 3 3 3 3 3 3 3 3 3 3
POINT_DATA 32
VECTORS displacement double
0 0 0
0.307264 0 0
0.307264 0 0
0.56775 0 0
0.56775 0 0
0.741801 0 0
0.741801 0 0
0.802919 0 0
0.802919 0 0
0.741801 0 0
0.741801 0 0
0.56775 0 0
0.56775 0 0
0.307264 0 0
0.307264 0 0
3.52334e-16 0 0
3.52334e-16 0 0
-0.307264 0 0
-0.307264 0 0
-0.56775 0 0
-0.56775 0 0
-0.741801 0 0
-0.741801 0 0
-0.802919 0 0
-0.802919 0 0
-0.741801 0 0
-0.741801 0 0
-0.56775 0 0
-0.56775 0 0
-0.307264 0 0
-0.307264 0 0
0 0 0
VECTORS velocity double
0 0 0
-0.598079 0 0
-0.598079 0 0
-1.10511 0 0
-1.10511 0 0
-1.44389 0 0
-1.44389 0 0
-1.56286 0 0
-1.56286 0 0
-1.44389 0 0
-1.44389 0 0
-1.10511 0 0
-1.10511 0 0
-0.598079 0 0
-0.598079 0 0
-2.06699e-15 0 0
-2.06699e-15 0 0
0.598079 0 0
0.598079 0 0
1.10511 0 0
1.10511 0 0
1.44389 0 0
1.44389 0 0
1.56286 0 0
1.56286 0 0
1.44389 0 0
1.44389 0 0
1.10511 0 0
1.10511 0 0
0.598079 0 0
0.598079 0 0
0 0 0
