# vtk DataFile Version 3.0
#This file was generated by the deal.II library on 2025/4/1 at 12:59:06
ASCII
DATASET UNSTRUCTURED_GRID

FIELD FieldData 1
TIME 1 1 double
1.73489
POINTS 16 double
0 0 0
0.125 0 0
0.125 0 0
0.25 0 0
0.25 0 0
0.375 0 0
0.375 0 0
0.5 0 0
0.5 0 0
0.625 0 0
0.625 0 0
0.75 0 0
0.75 0 0
0.875 0 0
0.875 0 0
1 0 0

CELLS 8 24
2	0	1
2	2	3
2	4	5
2	6	7
2	8	9
2	10	11
2	12	13
2	14	15

CELL_TYPES 8
 3 3 3 3 3 3 3 3
POINT_DATA 16
VECTORS displacement double
0 0 0
0.108044 0 0
0.108044 0 0
0.185254 0 0
0.185254 0 0
0.231597 0 0
0.231597 0 0
0.247049 0 0
0.247049 0 0
0.231597 0 0
0.231597 0 0
0.185254 0 0
0.185254 0 0
0.108044 0 0
0.108044 0 0
0 0 0
VECTORS velocity double
0 0 0
-0.0160778 0 0
-0.0160778 0 0
-0.0275791 0 0
-0.0275791 0 0
-0.0345953 0 0
-0.0345953 0 0
-0.0369676 0 0
-0.0369676 0 0
-0.0345953 0 0
-0.0345953 0 0
-0.0275791 0 0
-0.0275791 0 0
-0.0160778 0 0
-0.0160778 0 0
0 0 0
