# vtk DataFile Version 3.0
#This file was generated by the deal.II library on 2025/4/1 at 12:59:08
ASCII
DATASET UNSTRUCTURED_GRID

FIELD FieldData 1
TIME 1 1 double
2.67057
POINTS 16 double
0 0 0
0.125 0 0
0.125 0 0
0.25 0 0
0.25 0 0
0.375 0 0
0.375 0 0
0.5 0 0
0.5 0 0
0.625 0 0
0.625 0 0
0.75 0 0
0.75 0 0
0.875 0 0
0.875 0 0
1 0 0

CELLS 8 24
2	0	1
2	2	3
2	4	5
2	6	7
2	8	9
2	10	11
2	12	13
2	14	15

CELL_TYPES 8
 3 3 3 3 3 3 3 3
POINT_DATA 16
VECTORS displacement double
0 0 0
0.0494367 0 0
0.0494367 0 0
0.0847289 0 0
0.0847289 0 0
0.105894 0 0
0.105894 0 0
0.112947 0 0
0.112947 0 0
0.105894 0 0
0.105894 0 0
0.0847289 0 0
0.0847289 0 0
0.0494367 0 0
0.0494367 0 0
0 0 0
VECTORS velocity double
0 0 0
-0.0983886 0 0
-0.0983886 0 0
-0.16871 0 0
-0.16871 0 0
-0.210835 0 0
-0.210835 0 0
-0.22485 0 0
-0.22485 0 0
-0.210835 0 0
-0.210835 0 0
-0.16871 0 0
-0.16871 0 0
-0.0983886 0 0
-0.0983886 0 0
0 0 0
