# vtk DataFile Version 3.0
#This file was generated by the deal.II library on 2025/3/31 at 14:00:08
ASCII
DATASET UNSTRUCTURED_GRID

FIELD FieldData 1
TIME 1 1 double
1.59375
POINTS 128 double
0 0 0
0.03125 0 0
0.03125 0 0
0.0625 0 0
0.0625 0 0
0.09375 0 0
0.09375 0 0
0.125 0 0
0.125 0 0
0.15625 0 0
0.15625 0 0
0.1875 0 0
0.1875 0 0
0.21875 0 0
0.21875 0 0
0.25 0 0
0.25 0 0
0.28125 0 0
0.28125 0 0
0.3125 0 0
0.3125 0 0
0.34375 0 0
0.34375 0 0
0.375 0 0
0.375 0 0
0.40625 0 0
0.40625 0 0
0.4375 0 0
0.4375 0 0
0.46875 0 0
0.46875 0 0
0.5 0 0
0.5 0 0
0.53125 0 0
0.53125 0 0
0.5625 0 0
0.5625 0 0
0.59375 0 0
0.59375 0 0
0.625 0 0
0.625 0 0
0.65625 0 0
0.65625 0 0
0.6875 0 0
0.6875 0 0
0.71875 0 0
0.71875 0 0
0.75 0 0
0.75 0 0
0.78125 0 0
0.78125 0 0
0.8125 0 0
0.8125 0 0
0.84375 0 0
0.84375 0 0
0.875 0 0
0.875 0 0
0.90625 0 0
0.90625 0 0
0.9375 0 0
0.9375 0 0
0.96875 0 0
0.96875 0 0
1 0 0
1 0 0
1.03125 0 0
1.03125 0 0
1.0625 0 0
1.0625 0 0
1.09375 0 0
1.09375 0 0
1.125 0 0
1.125 0 0
1.15625 0 0
1.15625 0 0
1.1875 0 0
1.1875 0 0
1.21875 0 0
1.21875 0 0
1.25 0 0
1.25 0 0
1.28125 0 0
1.28125 0 0
1.3125 0 0
1.3125 0 0
1.34375 0 0
1.34375 0 0
1.375 0 0
1.375 0 0
1.40625 0 0
1.40625 0 0
1.4375 0 0
1.4375 0 0
1.46875 0 0
1.46875 0 0
1.5 0 0
1.5 0 0
1.53125 0 0
1.53125 0 0
1.5625 0 0
1.5625 0 0
1.59375 0 0
1.59375 0 0
1.625 0 0
1.625 0 0
1.65625 0 0
1.65625 0 0
1.6875 0 0
1.6875 0 0
1.71875 0 0
1.71875 0 0
1.75 0 0
1.75 0 0
1.78125 0 0
1.78125 0 0
1.8125 0 0
1.8125 0 0
1.84375 0 0
1.84375 0 0
1.875 0 0
1.875 0 0
1.90625 0 0
1.90625 0 0
1.9375 0 0
1.9375 0 0
1.96875 0 0
1.96875 0 0
2 0 0

CELLS 64 192
2	0	1
2	2	3
2	4	5
2	6	7
2	8	9
2	10	11
2	12	13
2	14	15
2	16	17
2	18	19
2	20	21
2	22	23
2	24	25
2	26	27
2	28	29
2	30	31
2	32	33
2	34	35
2	36	37
2	38	39
2	40	41
2	42	43
2	44	45
2	46	47
2	48	49
2	50	51
2	52	53
2	54	55
2	56	57
2	58	59
2	60	61
2	62	63
2	64	65
2	66	67
2	68	69
2	70	71
2	72	73
2	74	75
2	76	77
2	78	79
2	80	81
2	82	83
2	84	85
2	86	87
2	88	89
2	90	91
2	92	93
2	94	95
2	96	97
2	98	99
2	100	101
2	102	103
2	104	105
2	106	107
2	108	109
2	110	111
2	112	113
2	114	115
2	116	117
2	118	119
2	120	121
2	122	123
2	124	125
2	126	127

CELL_TYPES 64
 3 3 3 3 3 3 3 3 3 3 3 3 3 3 3 3 3 3 3 3 3 3 3 3 3 3 3 3 3 3 3 3 3 3 3 3 3 3 3 3 3 3 3 3 3 3 3 3 3 3 3 3 3 3 3 3 3 3 3 3 3 3 3 3
POINT_DATA 128
VECTORS displacement double
0 0 0
-0.0936999 0 0
-0.0936999 0 0
-0.186498 0 0
-0.186498 0 0
-0.277499 0 0
-0.277499 0 0
-0.365828 0 0
-0.365828 0 0
-0.450634 0 0
-0.450634 0 0
-0.5311 0 0
-0.5311 0 0
-0.606451 0 0
-0.606451 0 0
-0.675962 0 0
-0.675962 0 0
-0.738963 0 0
-0.738963 0 0
-0.794847 0 0
-0.794847 0 0
-0.843077 0 0
-0.843077 0 0
-0.883187 0 0
-0.883187 0 0
-0.914792 0 0
-0.914792 0 0
-0.937586 0 0
-0.937586 0 0
-0.951352 0 0
-0.951352 0 0
-0.955955 0 0
-0.955955 0 0
-0.951352 0 0
-0.951352 0 0
-0.937586 0 0
-0.937586 0 0
-0.914792 0 0
-0.914792 0 0
-0.883187 0 0
-0.883187 0 0
-0.843077 0 0
-0.843077 0 0
-0.794847 0 0
-0.794847 0 0
-0.738963 0 0
-0.738963 0 0
-0.675962 0 0
-0.675962 0 0
-0.606451 0 0
-0.606451 0 0
-0.5311 0 0
-0.5311 0 0
-0.450634 0 0
-0.450634 0 0
-0.365828 0 0
-0.365828 0 0
-0.277499 0 0
-0.277499 0 0
-0.186498 0 0
-0.186498 0 0
-0.0936999 0 0
-0.0936999 0 0
8.31862e-16 0 0
8.31862e-16 0 0
0.0936999 0 0
0.0936999 0 0
0.186498 0 0
0.186498 0 0
0.277499 0 0
0.277499 0 0
0.365828 0 0
0.365828 0 0
0.450634 0 0
0.450634 0 0
0.5311 0 0
0.5311 0 0
0.606451 0 0
0.606451 0 0
0.675962 0 0
0.675962 0 0
0.738963 0 0
0.738963 0 0
0.794847 0 0
0.794847 0 0
0.843077 0 0
0.843077 0 0
0.883187 0 0
0.883187 0 0
0.914792 0 0
0.914792 0 0
0.937586 0 0
0.937586 0 0
0.951352 0 0
0.951352 0 0
0.955955 0 0
0.955955 0 0
0.951352 0 0
0.951352 0 0
0.937586 0 0
0.937586 0 0
0.914792 0 0
0.914792 0 0
0.883187 0 0
0.883187 0 0
0.843077 0 0
0.843077 0 0
0.794847 0 0
0.794847 0 0
0.738963 0 0
0.738963 0 0
0.675962 0 0
0.675962 0 0
0.606451 0 0
0.606451 0 0
0.5311 0 0
0.5311 0 0
0.450634 0 0
0.450634 0 0
0.365828 0 0
0.365828 0 0
0.277499 0 0
0.277499 0 0
0.186498 0 0
0.186498 0 0
0.0936999 0 0
0.0936999 0 0
0 0 0
VECTORS velocity double
0 0 0
0.0899762 0 0
0.0899762 0 0
0.179086 0 0
0.179086 0 0
0.266471 0 0
0.266471 0 0
0.35129 0 0
0.35129 0 0
0.432725 0 0
0.432725 0 0
0.509993 0 0
0.509993 0 0
0.58235 0 0
0.58235 0 0
0.649098 0 0
0.649098 0 0
0.709596 0 0
0.709596 0 0
0.763259 0 0
0.763259 0 0
0.809572 0 0
0.809572 0 0
0.848088 0 0
0.848088 0 0
0.878437 0 0
0.878437 0 0
0.900325 0 0
0.900325 0 0
0.913544 0 0
0.913544 0 0
0.917964 0 0
0.917964 0 0
0.913544 0 0
0.913544 0 0
0.900325 0 0
0.900325 0 0
0.878437 0 0
0.878437 0 0
0.848088 0 0
0.848088 0 0
0.809572 0 0
0.809572 0 0
0.763259 0 0
0.763259 0 0
0.709596 0 0
0.709596 0 0
0.649098 0 0
0.649098 0 0
0.58235 0 0
0.58235 0 0
0.509993 0 0
0.509993 0 0
0.432725 0 0
0.432725 0 0
0.35129 0 0
0.35129 0 0
0.266471 0 0
0.266471 0 0
0.179086 0 0
0.179086 0 0
0.0899762 0 0
0.0899762 0 0
1.66913e-14 0 0
1.66913e-14 0 0
-0.0899762 0 0
-0.0899762 0 0
-0.179086 0 0
-0.179086 0 0
-0.266471 0 0
-0.266471 0 0
-0.35129 0 0
-0.35129 0 0
-0.432725 0 0
-0.432725 0 0
-0.509993 0 0
-0.509993 0 0
-0.58235 0 0
-0.58235 0 0
-0.649098 0 0
-0.649098 0 0
-0.709596 0 0
-0.709596 0 0
-0.763259 0 0
-0.763259 0 0
-0.809572 0 0
-0.809572 0 0
-0.848088 0 0
-0.848088 0 0
-0.878437 0 0
-0.878437 0 0
-0.900325 0 0
-0.900325 0 0
-0.913544 0 0
-0.913544 0 0
-0.917964 0 0
-0.917964 0 0
-0.913544 0 0
-0.913544 0 0
-0.900325 0 0
-0.900325 0 0
-0.878437 0 0
-0.878437 0 0
-0.848088 0 0
-0.848088 0 0
-0.809572 0 0
-0.809572 0 0
-0.763259 0 0
-0.763259 0 0
-0.709596 0 0
-0.709596 0 0
-0.649098 0 0
-0.649098 0 0
-0.58235 0 0
-0.58235 0 0
-0.509993 0 0
-0.509993 0 0
-0.432725 0 0
-0.432725 0 0
-0.35129 0 0
-0.35129 0 0
-0.266471 0 0
-0.266471 0 0
-0.179086 0 0
-0.179086 0 0
-0.0899762 0 0
-0.0899762 0 0
0 0 0
