# vtk DataFile Version 3.0
#This file was generated by the deal.II library on 2025/3/11 at 13:44:12
ASCII
DATASET UNSTRUCTURED_GRID

FIELD FieldData 1
TIME 1 1 double
5.29875
POINTS 256 double
0 0 0
0.625 0 0
0 0.0625 0
0.625 0.0625 0
0.625 0 0
1.25 0 0
0.625 0.0625 0
1.25 0.0625 0
0 0.0625 0
0.625 0.0625 0
0 0.125 0
0.625 0.125 0
0.625 0.0625 0
1.25 0.0625 0
0.625 0.125 0
1.25 0.125 0
1.25 0 0
1.875 0 0
1.25 0.0625 0
1.875 0.0625 0
1.875 0 0
2.5 0 0
1.875 0.0625 0
2.5 0.0625 0
1.25 0.0625 0
1.875 0.0625 0
1.25 0.125 0
1.875 0.125 0
1.875 0.0625 0
2.5 0.0625 0
1.875 0.125 0
2.5 0.125 0
0 0.125 0
0.625 0.125 0
0 0.1875 0
0.625 0.1875 0
0.625 0.125 0
1.25 0.125 0
0.625 0.1875 0
1.25 0.1875 0
0 0.1875 0
0.625 0.1875 0
0 0.25 0
0.625 0.25 0
0.625 0.1875 0
1.25 0.1875 0
0.625 0.25 0
1.25 0.25 0
1.25 0.125 0
1.875 0.125 0
1.25 0.1875 0
1.875 0.1875 0
1.875 0.125 0
2.5 0.125 0
1.875 0.1875 0
2.5 0.1875 0
1.25 0.1875 0
1.875 0.1875 0
1.25 0.25 0
1.875 0.25 0
1.875 0.1875 0
2.5 0.1875 0
1.875 0.25 0
2.5 0.25 0
2.5 0 0
3.125 0 0
2.5 0.0625 0
3.125 0.0625 0
3.125 0 0
3.75 0 0
3.125 0.0625 0
3.75 0.0625 0
2.5 0.0625 0
3.125 0.0625 0
2.5 0.125 0
3.125 0.125 0
3.125 0.0625 0
3.75 0.0625 0
3.125 0.125 0
3.75 0.125 0
3.75 0 0
4.375 0 0
3.75 0.0625 0
4.375 0.0625 0
4.375 0 0
5 0 0
4.375 0.0625 0
5 0.0625 0
3.75 0.0625 0
4.375 0.0625 0
3.75 0.125 0
4.375 0.125 0
4.375 0.0625 0
5 0.0625 0
4.375 0.125 0
5 0.125 0
2.5 0.125 0
3.125 0.125 0
2.5 0.1875 0
3.125 0.1875 0
3.125 0.125 0
3.75 0.125 0
3.125 0.1875 0
3.75 0.1875 0
2.5 0.1875 0
3.125 0.1875 0
2.5 0.25 0
3.125 0.25 0
3.125 0.1875 0
3.75 0.1875 0
3.125 0.25 0
3.75 0.25 0
3.75 0.125 0
4.375 0.125 0
3.75 0.1875 0
4.375 0.1875 0
4.375 0.125 0
5 0.125 0
4.375 0.1875 0
5 0.1875 0
3.75 0.1875 0
4.375 0.1875 0
3.75 0.25 0
4.375 0.25 0
4.375 0.1875 0
5 0.1875 0
4.375 0.25 0
5 0.25 0
0 0.25 0
0.625 0.25 0
0 0.3125 0
0.625 0.3125 0
0.625 0.25 0
1.25 0.25 0
0.625 0.3125 0
1.25 0.3125 0
0 0.3125 0
0.625 0.3125 0
0 0.375 0
0.625 0.375 0
0.625 0.3125 0
1.25 0.3125 0
0.625 0.375 0
1.25 0.375 0
1.25 0.25 0
1.875 0.25 0
1.25 0.3125 0
1.875 0.3125 0
1.875 0.25 0
2.5 0.25 0
1.875 0.3125 0
2.5 0.3125 0
1.25 0.3125 0
1.875 0.3125 0
1.25 0.375 0
1.875 0.375 0
1.875 0.3125 0
2.5 0.3125 0
1.875 0.375 0
2.5 0.375 0
0 0.375 0
0.625 0.375 0
0 0.4375 0
0.625 0.4375 0
0.625 0.375 0
1.25 0.375 0
0.625 0.4375 0
1.25 0.4375 0
0 0.4375 0
0.625 0.4375 0
0 0.5 0
0.625 0.5 0
0.625 0.4375 0
1.25 0.4375 0
0.625 0.5 0
1.25 0.5 0
1.25 0.375 0
1.875 0.375 0
1.25 0.4375 0
1.875 0.4375 0
1.875 0.375 0
2.5 0.375 0
1.875 0.4375 0
2.5 0.4375 0
1.25 0.4375 0
1.875 0.4375 0
1.25 0.5 0
1.875 0.5 0
1.875 0.4375 0
2.5 0.4375 0
1.875 0.5 0
2.5 0.5 0
2.5 0.25 0
3.125 0.25 0
2.5 0.3125 0
3.125 0.3125 0
3.125 0.25 0
3.75 0.25 0
3.125 0.3125 0
3.75 0.3125 0
2.5 0.3125 0
3.125 0.3125 0
2.5 0.375 0
3.125 0.375 0
3.125 0.3125 0
3.75 0.3125 0
3.125 0.375 0
3.75 0.375 0
3.75 0.25 0
4.375 0.25 0
3.75 0.3125 0
4.375 0.3125 0
4.375 0.25 0
5 0.25 0
4.375 0.3125 0
5 0.3125 0
3.75 0.3125 0
4.375 0.3125 0
3.75 0.375 0
4.375 0.375 0
4.375 0.3125 0
5 0.3125 0
4.375 0.375 0
5 0.375 0
2.5 0.375 0
3.125 0.375 0
2.5 0.4375 0
3.125 0.4375 0
3.125 0.375 0
3.75 0.375 0
3.125 0.4375 0
3.75 0.4375 0
2.5 0.4375 0
3.125 0.4375 0
2.5 0.5 0
3.125 0.5 0
3.125 0.4375 0
3.75 0.4375 0
3.125 0.5 0
3.75 0.5 0
3.75 0.375 0
4.375 0.375 0
3.75 0.4375 0
4.375 0.4375 0
4.375 0.375 0
5 0.375 0
4.375 0.4375 0
5 0.4375 0
3.75 0.4375 0
4.375 0.4375 0
3.75 0.5 0
4.375 0.5 0
4.375 0.4375 0
5 0.4375 0
4.375 0.5 0
5 0.5 0

CELLS 64 320
4	0	1	3	2
4	4	5	7	6
4	8	9	11	10
4	12	13	15	14
4	16	17	19	18
4	20	21	23	22
4	24	25	27	26
4	28	29	31	30
4	32	33	35	34
4	36	37	39	38
4	40	41	43	42
4	44	45	47	46
4	48	49	51	50
4	52	53	55	54
4	56	57	59	58
4	60	61	63	62
4	64	65	67	66
4	68	69	71	70
4	72	73	75	74
4	76	77	79	78
4	80	81	83	82
4	84	85	87	86
4	88	89	91	90
4	92	93	95	94
4	96	97	99	98
4	100	101	103	102
4	104	105	107	106
4	108	109	111	110
4	112	113	115	114
4	116	117	119	118
4	120	121	123	122
4	124	125	127	126
4	128	129	131	130
4	132	133	135	134
4	136	137	139	138
4	140	141	143	142
4	144	145	147	146
4	148	149	151	150
4	152	153	155	154
4	156	157	159	158
4	160	161	163	162
4	164	165	167	166
4	168	169	171	170
4	172	173	175	174
4	176	177	179	178
4	180	181	183	182
4	184	185	187	186
4	188	189	191	190
4	192	193	195	194
4	196	197	199	198
4	200	201	203	202
4	204	205	207	206
4	208	209	211	210
4	212	213	215	214
4	216	217	219	218
4	220	221	223	222
4	224	225	227	226
4	228	229	231	230
4	232	233	235	234
4	236	237	239	238
4	240	241	243	242
4	244	245	247	246
4	248	249	251	250
4	252	253	255	254

CELL_TYPES 64
 9 9 9 9 9 9 9 9 9 9 9 9 9 9 9 9 9 9 9 9 9 9 9 9 9 9 9 9 9 9 9 9 9 9 9 9 9 9 9 9 9 9 9 9 9 9 9 9 9 9 9 9 9 9 9 9 9 9 9 9 9 9 9 9
POINT_DATA 256
VECTORS displacement double
0 0 0
-1.208e-05 -1.88825e-05 0
0 0 0
-8.83213e-06 -1.80044e-05 0
-1.208e-05 -1.88825e-05 0
-2.30265e-05 -6.4372e-05 0
-8.83213e-06 -1.80044e-05 0
-1.7248e-05 -6.38645e-05 0
0 0 0
-8.83213e-06 -1.80044e-05 0
0 0 0
-5.79037e-06 -1.73831e-05 0
-8.83213e-06 -1.80044e-05 0
-1.7248e-05 -6.38645e-05 0
-5.79037e-06 -1.73831e-05 0
-1.14788e-05 -6.34923e-05 0
-2.30265e-05 -6.4372e-05 0
-3.07326e-05 -0.000133181 0
-1.7248e-05 -6.38645e-05 0
-2.29793e-05 -0.000132804 0
-3.07326e-05 -0.000133181 0
-3.59259e-05 -0.000217795 0
-2.29793e-05 -0.000132804 0
-2.68996e-05 -0.000217556 0
-1.7248e-05 -6.38645e-05 0
-2.29793e-05 -0.000132804 0
-1.14788e-05 -6.34923e-05 0
-1.5291e-05 -0.000132538 0
-2.29793e-05 -0.000132804 0
-2.68996e-05 -0.000217556 0
-1.5291e-05 -0.000132538 0
-1.79097e-05 -0.000217383 0
0 0 0
-5.79037e-06 -1.73831e-05 0
0 0 0
-2.86778e-06 -1.70128e-05 0
-5.79037e-06 -1.73831e-05 0
-1.14788e-05 -6.34923e-05 0
-2.86778e-06 -1.70128e-05 0
-5.73187e-06 -6.32655e-05 0
0 0 0
-2.86778e-06 -1.70128e-05 0
0 0 0
-7.12873e-19 -1.68899e-05 0
-2.86778e-06 -1.70128e-05 0
-5.73187e-06 -6.32655e-05 0
-7.12873e-19 -1.68899e-05 0
-1.65457e-18 -6.31892e-05 0
-1.14788e-05 -6.34923e-05 0
-1.5291e-05 -0.000132538 0
-5.73187e-06 -6.32655e-05 0
-7.63773e-06 -0.00013238 0
-1.5291e-05 -0.000132538 0
-1.79097e-05 -0.000217383 0
-7.63773e-06 -0.00013238 0
-8.94758e-06 -0.000217279 0
-5.73187e-06 -6.32655e-05 0
-7.63773e-06 -0.00013238 0
-1.65457e-18 -6.31892e-05 0
-2.6513e-18 -0.000132328 0
-7.63773e-06 -0.00013238 0
-8.94758e-06 -0.000217279 0
-2.6513e-18 -0.000132328 0
-3.39679e-18 -0.000217244 0
-3.59259e-05 -0.000217795 0
-3.91072e-05 -0.000312595 0
-2.68996e-05 -0.000217556 0
-2.92947e-05 -0.000312458 0
-3.91072e-05 -0.000312595 0
-4.07713e-05 -0.000413166 0
-2.92947e-05 -0.000312458 0
-3.05548e-05 -0.000413103 0
-2.68996e-05 -0.000217556 0
-2.92947e-05 -0.000312458 0
-1.79097e-05 -0.000217383 0
-1.95134e-05 -0.00031236 0
-2.92947e-05 -0.000312458 0
-3.05548e-05 -0.000413103 0
-1.95134e-05 -0.00031236 0
-2.03584e-05 -0.000413057 0
-4.07713e-05 -0.000413166 0
-4.14213e-05 -0.000516341 0
-3.05548e-05 -0.000413103 0
-3.10547e-05 -0.000516322 0
-4.14213e-05 -0.000516341 0
-4.1567e-05 -0.000620221 0
-3.10547e-05 -0.000516322 0
-3.11726e-05 -0.000620217 0
-3.05548e-05 -0.000413103 0
-3.10547e-05 -0.000516322 0
-2.03584e-05 -0.000413057 0
-2.06977e-05 -0.000516308 0
-3.10547e-05 -0.000516322 0
-3.11726e-05 -0.000620217 0
-2.06977e-05 -0.000516308 0
-2.07803e-05 -0.000620214 0
-1.79097e-05 -0.000217383 0
-1.95134e-05 -0.00031236 0
-8.94758e-06 -0.000217279 0
-9.75186e-06 -0.000312301 0
-1.95134e-05 -0.00031236 0
-2.03584e-05 -0.000413057 0
-9.75186e-06 -0.000312301 0
-1.01758e-05 -0.000413029 0
-8.94758e-06 -0.000217279 0
-9.75186e-06 -0.000312301 0
-3.39679e-18 -0.000217244 0
-3.70869e-18 -0.000312281 0
-9.75186e-06 -0.000312301 0
-1.01758e-05 -0.000413029 0
-3.70869e-18 -0.000312281 0
-4.12246e-18 -0.000413019 0
-2.03584e-05 -0.000413057 0
-2.06977e-05 -0.000516308 0
-1.01758e-05 -0.000413029 0
-1.03472e-05 -0.000516299 0
-2.06977e-05 -0.000516308 0
-2.07803e-05 -0.000620214 0
-1.03472e-05 -0.000516299 0
-1.03897e-05 -0.000620212 0
-1.01758e-05 -0.000413029 0
-1.03472e-05 -0.000516299 0
-4.12246e-18 -0.000413019 0
-4.41093e-18 -0.000516296 0
-1.03472e-05 -0.000516299 0
-1.03897e-05 -0.000620212 0
-4.41093e-18 -0.000516296 0
-4.07315e-18 -0.000620211 0
0 0 0
-7.12873e-19 -1.68899e-05 0
0 0 0
2.86778e-06 -1.70128e-05 0
-7.12873e-19 -1.68899e-05 0
-1.65457e-18 -6.31892e-05 0
2.86778e-06 -1.70128e-05 0
5.73187e-06 -6.32655e-05 0
0 0 0
2.86778e-06 -1.70128e-05 0
0 0 0
5.79037e-06 -1.73831e-05 0
2.86778e-06 -1.70128e-05 0
5.73187e-06 -6.32655e-05 0
5.79037e-06 -1.73831e-05 0
1.14788e-05 -6.34923e-05 0
-1.65457e-18 -6.31892e-05 0
-2.6513e-18 -0.000132328 0
5.73187e-06 -6.32655e-05 0
7.63773e-06 -0.00013238 0
-2.6513e-18 -0.000132328 0
-3.39679e-18 -0.000217244 0
7.63773e-06 -0.00013238 0
8.94758e-06 -0.000217279 0
5.73187e-06 -6.32655e-05 0
7.63773e-06 -0.00013238 0
1.14788e-05 -6.34923e-05 0
1.5291e-05 -0.000132538 0
7.63773e-06 -0.00013238 0
8.94758e-06 -0.000217279 0
1.5291e-05 -0.000132538 0
1.79097e-05 -0.000217383 0
0 0 0
5.79037e-06 -1.73831e-05 0
0 0 0
8.83213e-06 -1.80044e-05 0
5.79037e-06 -1.73831e-05 0
1.14788e-05 -6.34923e-05 0
8.83213e-06 -1.80044e-05 0
1.7248e-05 -6.38645e-05 0
0 0 0
8.83213e-06 -1.80044e-05 0
0 0 0
1.208e-05 -1.88825e-05 0
8.83213e-06 -1.80044e-05 0
1.7248e-05 -6.38645e-05 0
1.208e-05 -1.88825e-05 0
2.30265e-05 -6.4372e-05 0
1.14788e-05 -6.34923e-05 0
1.5291e-05 -0.000132538 0
1.7248e-05 -6.38645e-05 0
2.29793e-05 -0.000132804 0
1.5291e-05 -0.000132538 0
1.79097e-05 -0.000217383 0
2.29793e-05 -0.000132804 0
2.68996e-05 -0.000217556 0
1.7248e-05 -6.38645e-05 0
2.29793e-05 -0.000132804 0
2.30265e-05 -6.4372e-05 0
3.07326e-05 -0.000133181 0
2.29793e-05 -0.000132804 0
2.68996e-05 -0.000217556 0
3.07326e-05 -0.000133181 0
3.59259e-05 -0.000217795 0
-3.39679e-18 -0.000217244 0
-3.70869e-18 -0.000312281 0
8.94758e-06 -0.000217279 0
9.75186e-06 -0.000312301 0
-3.70869e-18 -0.000312281 0
-4.12246e-18 -0.000413019 0
9.75186e-06 -0.000312301 0
1.01758e-05 -0.000413029 0
8.94758e-06 -0.000217279 0
9.75186e-06 -0.000312301 0
1.79097e-05 -0.000217383 0
1.95134e-05 -0.00031236 0
9.75186e-06 -0.000312301 0
1.01758e-05 -0.000413029 0
1.95134e-05 -0.00031236 0
2.03584e-05 -0.000413057 0
-4.12246e-18 -0.000413019 0
-4.41093e-18 -0.000516296 0
1.01758e-05 -0.000413029 0
1.03472e-05 -0.000516299 0
-4.41093e-18 -0.000516296 0
-4.07315e-18 -0.000620211 0
1.03472e-05 -0.000516299 0
1.03897e-05 -0.000620212 0
1.01758e-05 -0.000413029 0
1.03472e-05 -0.000516299 0
2.03584e-05 -0.000413057 0
2.06977e-05 -0.000516308 0
1.03472e-05 -0.000516299 0
1.03897e-05 -0.000620212 0
2.06977e-05 -0.000516308 0
2.07803e-05 -0.000620214 0
1.79097e-05 -0.000217383 0
1.95134e-05 -0.00031236 0
2.68996e-05 -0.000217556 0
2.92947e-05 -0.000312458 0
1.95134e-05 -0.00031236 0
2.03584e-05 -0.000413057 0
2.92947e-05 -0.000312458 0
3.05548e-05 -0.000413103 0
2.68996e-05 -0.000217556 0
2.92947e-05 -0.000312458 0
3.59259e-05 -0.000217795 0
3.91072e-05 -0.000312595 0
2.92947e-05 -0.000312458 0
3.05548e-05 -0.000413103 0
3.91072e-05 -0.000312595 0
4.07713e-05 -0.000413166 0
2.03584e-05 -0.000413057 0
2.06977e-05 -0.000516308 0
3.05548e-05 -0.000413103 0
3.10547e-05 -0.000516322 0
2.06977e-05 -0.000516308 0
2.07803e-05 -0.000620214 0
3.10547e-05 -0.000516322 0
3.11726e-05 -0.000620217 0
3.05548e-05 -0.000413103 0
3.10547e-05 -0.000516322 0
4.07713e-05 -0.000413166 0
4.14213e-05 -0.000516341 0
3.10547e-05 -0.000516322 0
3.11726e-05 -0.000620217 0
4.14213e-05 -0.000516341 0
4.1567e-05 -0.000620221 0
VECTORS velocity double
0 0 0
4.12225e-06 6.6675e-06 0
0 0 0
3.00377e-06 6.37408e-06 0
4.12225e-06 6.6675e-06 0
7.59989e-06 2.19816e-05 0
3.00377e-06 6.37408e-06 0
5.69025e-06 2.1829e-05 0
0 0 0
3.00377e-06 6.37408e-06 0
0 0 0
1.96475e-06 6.16673e-06 0
3.00377e-06 6.37408e-06 0
5.69025e-06 2.1829e-05 0
1.96475e-06 6.16673e-06 0
3.78539e-06 2.17163e-05 0
7.59989e-06 2.19816e-05 0
9.83438e-06 4.43644e-05 0
5.69025e-06 2.1829e-05 0
7.35135e-06 4.42602e-05 0
9.83438e-06 4.43644e-05 0
1.11929e-05 7.10697e-05 0
7.35135e-06 4.42602e-05 0
8.38113e-06 7.10109e-05 0
5.69025e-06 2.1829e-05 0
7.35135e-06 4.42602e-05 0
3.78539e-06 2.17163e-05 0
4.89108e-06 4.4187e-05 0
7.35135e-06 4.42602e-05 0
8.38113e-06 7.10109e-05 0
4.89108e-06 4.4187e-05 0
5.58024e-06 7.0968e-05 0
0 0 0
1.96475e-06 6.16673e-06 0
0 0 0
9.71771e-07 6.0433e-06 0
1.96475e-06 6.16673e-06 0
3.78539e-06 2.17163e-05 0
9.71771e-07 6.0433e-06 0
1.88967e-06 2.16472e-05 0
0 0 0
9.71771e-07 6.0433e-06 0
0 0 0
-1.18504e-17 6.00232e-06 0
9.71771e-07 6.0433e-06 0
1.88967e-06 2.16472e-05 0
-1.18504e-17 6.00232e-06 0
-3.20461e-17 2.16239e-05 0
3.78539e-06 2.17163e-05 0
4.89108e-06 4.4187e-05 0
1.88967e-06 2.16472e-05 0
2.44287e-06 4.41434e-05 0
4.89108e-06 4.4187e-05 0
5.58024e-06 7.0968e-05 0
2.44287e-06 4.41434e-05 0
2.78787e-06 7.0942e-05 0
1.88967e-06 2.16472e-05 0
2.44287e-06 4.41434e-05 0
-3.20461e-17 2.16239e-05 0
-5.21399e-17 4.41289e-05 0
2.44287e-06 4.41434e-05 0
2.78787e-06 7.0942e-05 0
-5.21399e-17 4.41289e-05 0
-5.58746e-17 7.09333e-05 0
1.11929e-05 7.10697e-05 0
1.19334e-05 0.000100263 0
8.38113e-06 7.10109e-05 0
8.94068e-06 0.000100234 0
1.19334e-05 0.000100263 0
1.22722e-05 0.000130693 0
8.94068e-06 0.000100234 0
9.19908e-06 0.000130681 0
8.38113e-06 7.10109e-05 0
8.94068e-06 0.000100234 0
5.58024e-06 7.0968e-05 0
5.95624e-06 0.000100212 0
8.94068e-06 0.000100234 0
9.19908e-06 0.000130681 0
5.95624e-06 0.000100212 0
6.13023e-06 0.000130672 0
1.22722e-05 0.000130693 0
1.23862e-05 0.0001616 0
9.19908e-06 0.000130681 0
9.28768e-06 0.000161597 0
1.23862e-05 0.0001616 0
1.24077e-05 0.000192615 0
9.28768e-06 0.000161597 0
9.30542e-06 0.000192614 0
9.19908e-06 0.000130681 0
9.28768e-06 0.000161597 0
6.13023e-06 0.000130672 0
6.19086e-06 0.000161595 0
9.28768e-06 0.000161597 0
9.30542e-06 0.000192614 0
6.19086e-06 0.000161595 0
6.20343e-06 0.000192614 0
5.58024e-06 7.0968e-05 0
5.95624e-06 0.000100212 0
2.78787e-06 7.0942e-05 0
2.97688e-06 0.000100199 0
5.95624e-06 0.000100212 0
6.13023e-06 0.000130672 0
2.97688e-06 0.000100199 0
3.06436e-06 0.000130667 0
2.78787e-06 7.0942e-05 0
2.97688e-06 0.000100199 0
-5.58746e-17 7.09333e-05 0
-6.77385e-17 0.000100195 0
2.97688e-06 0.000100199 0
3.06436e-06 0.000130667 0
-6.77385e-17 0.000100195 0
-1.02067e-16 0.000130665 0
6.13023e-06 0.000130672 0
6.19086e-06 0.000161595 0
3.06436e-06 0.000130667 0
3.09515e-06 0.000161594 0
6.19086e-06 0.000161595 0
6.20343e-06 0.000192614 0
3.09515e-06 0.000161594 0
3.10166e-06 0.000192613 0
3.06436e-06 0.000130667 0
3.09515e-06 0.000161594 0
-1.02067e-16 0.000130665 0
-9.7237e-17 0.000161593 0
3.09515e-06 0.000161594 0
3.10166e-06 0.000192613 0
-9.7237e-17 0.000161593 0
-1.22809e-16 0.000192613 0
0 0 0
-1.18504e-17 6.00232e-06 0
0 0 0
-9.71771e-07 6.0433e-06 0
-1.18504e-17 6.00232e-06 0
-3.20461e-17 2.16239e-05 0
-9.71771e-07 6.0433e-06 0
-1.88967e-06 2.16472e-05 0
0 0 0
-9.71771e-07 6.0433e-06 0
0 0 0
-1.96475e-06 6.16673e-06 0
-9.71771e-07 6.0433e-06 0
-1.88967e-06 2.16472e-05 0
-1.96475e-06 6.16673e-06 0
-3.78539e-06 2.17163e-05 0
-3.20461e-17 2.16239e-05 0
-5.21399e-17 4.41289e-05 0
-1.88967e-06 2.16472e-05 0
-2.44287e-06 4.41434e-05 0
-5.21399e-17 4.41289e-05 0
-5.58746e-17 7.09333e-05 0
-2.44287e-06 4.41434e-05 0
-2.78787e-06 7.0942e-05 0
-1.88967e-06 2.16472e-05 0
-2.44287e-06 4.41434e-05 0
-3.78539e-06 2.17163e-05 0
-4.89108e-06 4.4187e-05 0
-2.44287e-06 4.41434e-05 0
-2.78787e-06 7.0942e-05 0
-4.89108e-06 4.4187e-05 0
-5.58024e-06 7.0968e-05 0
0 0 0
-1.96475e-06 6.16673e-06 0
0 0 0
-3.00377e-06 6.37408e-06 0
-1.96475e-06 6.16673e-06 0
-3.78539e-06 2.17163e-05 0
-3.00377e-06 6.37408e-06 0
-5.69025e-06 2.1829e-05 0
0 0 0
-3.00377e-06 6.37408e-06 0
0 0 0
-4.12225e-06 6.6675e-06 0
-3.00377e-06 6.37408e-06 0
-5.69025e-06 2.1829e-05 0
-4.12225e-06 6.6675e-06 0
-7.59989e-06 2.19816e-05 0
-3.78539e-06 2.17163e-05 0
-4.89108e-06 4.4187e-05 0
-5.69025e-06 2.1829e-05 0
-7.35135e-06 4.42602e-05 0
-4.89108e-06 4.4187e-05 0
-5.58024e-06 7.0968e-05 0
-7.35135e-06 4.42602e-05 0
-8.38113e-06 7.10109e-05 0
-5.69025e-06 2.1829e-05 0
-7.35135e-06 4.42602e-05 0
-7.59989e-06 2.19816e-05 0
-9.83438e-06 4.43644e-05 0
-7.35135e-06 4.42602e-05 0
-8.38113e-06 7.10109e-05 0
-9.83438e-06 4.43644e-05 0
-1.11929e-05 7.10697e-05 0
-5.58746e-17 7.09333e-05 0
-6.77385e-17 0.000100195 0
-2.78787e-06 7.0942e-05 0
-2.97688e-06 0.000100199 0
-6.77385e-17 0.000100195 0
-1.02067e-16 0.000130665 0
-2.97688e-06 0.000100199 0
-3.06436e-06 0.000130667 0
-2.78787e-06 7.0942e-05 0
-2.97688e-06 0.000100199 0
-5.58024e-06 7.0968e-05 0
-5.95624e-06 0.000100212 0
-2.97688e-06 0.000100199 0
-3.06436e-06 0.000130667 0
-5.95624e-06 0.000100212 0
-6.13023e-06 0.000130672 0
-1.02067e-16 0.000130665 0
-9.7237e-17 0.000161593 0
-3.06436e-06 0.000130667 0
-3.09515e-06 0.000161594 0
-9.7237e-17 0.000161593 0
-1.22809e-16 0.000192613 0
-3.09515e-06 0.000161594 0
-3.10166e-06 0.000192613 0
-3.06436e-06 0.000130667 0
-3.09515e-06 0.000161594 0
-6.13023e-06 0.000130672 0
-6.19086e-06 0.000161595 0
-3.09515e-06 0.000161594 0
-3.10166e-06 0.000192613 0
-6.19086e-06 0.000161595 0
-6.20343e-06 0.000192614 0
-5.58024e-06 7.0968e-05 0
-5.95624e-06 0.000100212 0
-8.38113e-06 7.10109e-05 0
-8.94068e-06 0.000100234 0
-5.95624e-06 0.000100212 0
-6.13023e-06 0.000130672 0
-8.94068e-06 0.000100234 0
-9.19908e-06 0.000130681 0
-8.38113e-06 7.10109e-05 0
-8.94068e-06 0.000100234 0
-1.11929e-05 7.10697e-05 0
-1.19334e-05 0.000100263 0
-8.94068e-06 0.000100234 0
-9.19908e-06 0.000130681 0
-1.19334e-05 0.000100263 0
-1.22722e-05 0.000130693 0
-6.13023e-06 0.000130672 0
-6.19086e-06 0.000161595 0
-9.19908e-06 0.000130681 0
-9.28768e-06 0.000161597 0
-6.19086e-06 0.000161595 0
-6.20343e-06 0.000192614 0
-9.28768e-06 0.000161597 0
-9.30542e-06 0.000192614 0
-9.19908e-06 0.000130681 0
-9.28768e-06 0.000161597 0
-1.22722e-05 0.000130693 0
-1.23862e-05 0.0001616 0
-9.28768e-06 0.000161597 0
-9.30542e-06 0.000192614 0
-1.23862e-05 0.0001616 0
-1.24077e-05 0.000192615 0
