# vtk DataFile Version 3.0
#This file was generated by the deal.II library on 2025/3/11 at 13:44:11
ASCII
DATASET UNSTRUCTURED_GRID

FIELD FieldData 1
TIME 1 1 double
2.96828
POINTS 256 double
0 0 0
0.625 0 0
0 0.0625 0
0.625 0.0625 0
0.625 0 0
1.25 0 0
0.625 0.0625 0
1.25 0.0625 0
0 0.0625 0
0.625 0.0625 0
0 0.125 0
0.625 0.125 0
0.625 0.0625 0
1.25 0.0625 0
0.625 0.125 0
1.25 0.125 0
1.25 0 0
1.875 0 0
1.25 0.0625 0
1.875 0.0625 0
1.875 0 0
2.5 0 0
1.875 0.0625 0
2.5 0.0625 0
1.25 0.0625 0
1.875 0.0625 0
1.25 0.125 0
1.875 0.125 0
1.875 0.0625 0
2.5 0.0625 0
1.875 0.125 0
2.5 0.125 0
0 0.125 0
0.625 0.125 0
0 0.1875 0
0.625 0.1875 0
0.625 0.125 0
1.25 0.125 0
0.625 0.1875 0
1.25 0.1875 0
0 0.1875 0
0.625 0.1875 0
0 0.25 0
0.625 0.25 0
0.625 0.1875 0
1.25 0.1875 0
0.625 0.25 0
1.25 0.25 0
1.25 0.125 0
1.875 0.125 0
1.25 0.1875 0
1.875 0.1875 0
1.875 0.125 0
2.5 0.125 0
1.875 0.1875 0
2.5 0.1875 0
1.25 0.1875 0
1.875 0.1875 0
1.25 0.25 0
1.875 0.25 0
1.875 0.1875 0
2.5 0.1875 0
1.875 0.25 0
2.5 0.25 0
2.5 0 0
3.125 0 0
2.5 0.0625 0
3.125 0.0625 0
3.125 0 0
3.75 0 0
3.125 0.0625 0
3.75 0.0625 0
2.5 0.0625 0
3.125 0.0625 0
2.5 0.125 0
3.125 0.125 0
3.125 0.0625 0
3.75 0.0625 0
3.125 0.125 0
3.75 0.125 0
3.75 0 0
4.375 0 0
3.75 0.0625 0
4.375 0.0625 0
4.375 0 0
5 0 0
4.375 0.0625 0
5 0.0625 0
3.75 0.0625 0
4.375 0.0625 0
3.75 0.125 0
4.375 0.125 0
4.375 0.0625 0
5 0.0625 0
4.375 0.125 0
5 0.125 0
2.5 0.125 0
3.125 0.125 0
2.5 0.1875 0
3.125 0.1875 0
3.125 0.125 0
3.75 0.125 0
3.125 0.1875 0
3.75 0.1875 0
2.5 0.1875 0
3.125 0.1875 0
2.5 0.25 0
3.125 0.25 0
3.125 0.1875 0
3.75 0.1875 0
3.125 0.25 0
3.75 0.25 0
3.75 0.125 0
4.375 0.125 0
3.75 0.1875 0
4.375 0.1875 0
4.375 0.125 0
5 0.125 0
4.375 0.1875 0
5 0.1875 0
3.75 0.1875 0
4.375 0.1875 0
3.75 0.25 0
4.375 0.25 0
4.375 0.1875 0
5 0.1875 0
4.375 0.25 0
5 0.25 0
0 0.25 0
0.625 0.25 0
0 0.3125 0
0.625 0.3125 0
0.625 0.25 0
1.25 0.25 0
0.625 0.3125 0
1.25 0.3125 0
0 0.3125 0
0.625 0.3125 0
0 0.375 0
0.625 0.375 0
0.625 0.3125 0
1.25 0.3125 0
0.625 0.375 0
1.25 0.375 0
1.25 0.25 0
1.875 0.25 0
1.25 0.3125 0
1.875 0.3125 0
1.875 0.25 0
2.5 0.25 0
1.875 0.3125 0
2.5 0.3125 0
1.25 0.3125 0
1.875 0.3125 0
1.25 0.375 0
1.875 0.375 0
1.875 0.3125 0
2.5 0.3125 0
1.875 0.375 0
2.5 0.375 0
0 0.375 0
0.625 0.375 0
0 0.4375 0
0.625 0.4375 0
0.625 0.375 0
1.25 0.375 0
0.625 0.4375 0
1.25 0.4375 0
0 0.4375 0
0.625 0.4375 0
0 0.5 0
0.625 0.5 0
0.625 0.4375 0
1.25 0.4375 0
0.625 0.5 0
1.25 0.5 0
1.25 0.375 0
1.875 0.375 0
1.25 0.4375 0
1.875 0.4375 0
1.875 0.375 0
2.5 0.375 0
1.875 0.4375 0
2.5 0.4375 0
1.25 0.4375 0
1.875 0.4375 0
1.25 0.5 0
1.875 0.5 0
1.875 0.4375 0
2.5 0.4375 0
1.875 0.5 0
2.5 0.5 0
2.5 0.25 0
3.125 0.25 0
2.5 0.3125 0
3.125 0.3125 0
3.125 0.25 0
3.75 0.25 0
3.125 0.3125 0
3.75 0.3125 0
2.5 0.3125 0
3.125 0.3125 0
2.5 0.375 0
3.125 0.375 0
3.125 0.3125 0
3.75 0.3125 0
3.125 0.375 0
3.75 0.375 0
3.75 0.25 0
4.375 0.25 0
3.75 0.3125 0
4.375 0.3125 0
4.375 0.25 0
5 0.25 0
4.375 0.3125 0
5 0.3125 0
3.75 0.3125 0
4.375 0.3125 0
3.75 0.375 0
4.375 0.375 0
4.375 0.3125 0
5 0.3125 0
4.375 0.375 0
5 0.375 0
2.5 0.375 0
3.125 0.375 0
2.5 0.4375 0
3.125 0.4375 0
3.125 0.375 0
3.75 0.375 0
3.125 0.4375 0
3.75 0.4375 0
2.5 0.4375 0
3.125 0.4375 0
2.5 0.5 0
3.125 0.5 0
3.125 0.4375 0
3.75 0.4375 0
3.125 0.5 0
3.75 0.5 0
3.75 0.375 0
4.375 0.375 0
3.75 0.4375 0
4.375 0.4375 0
4.375 0.375 0
5 0.375 0
4.375 0.4375 0
5 0.4375 0
3.75 0.4375 0
4.375 0.4375 0
3.75 0.5 0
4.375 0.5 0
4.375 0.4375 0
5 0.4375 0
4.375 0.5 0
5 0.5 0

CELLS 64 320
4	0	1	3	2
4	4	5	7	6
4	8	9	11	10
4	12	13	15	14
4	16	17	19	18
4	20	21	23	22
4	24	25	27	26
4	28	29	31	30
4	32	33	35	34
4	36	37	39	38
4	40	41	43	42
4	44	45	47	46
4	48	49	51	50
4	52	53	55	54
4	56	57	59	58
4	60	61	63	62
4	64	65	67	66
4	68	69	71	70
4	72	73	75	74
4	76	77	79	78
4	80	81	83	82
4	84	85	87	86
4	88	89	91	90
4	92	93	95	94
4	96	97	99	98
4	100	101	103	102
4	104	105	107	106
4	108	109	111	110
4	112	113	115	114
4	116	117	119	118
4	120	121	123	122
4	124	125	127	126
4	128	129	131	130
4	132	133	135	134
4	136	137	139	138
4	140	141	143	142
4	144	145	147	146
4	148	149	151	150
4	152	153	155	154
4	156	157	159	158
4	160	161	163	162
4	164	165	167	166
4	168	169	171	170
4	172	173	175	174
4	176	177	179	178
4	180	181	183	182
4	184	185	187	186
4	188	189	191	190
4	192	193	195	194
4	196	197	199	198
4	200	201	203	202
4	204	205	207	206
4	208	209	211	210
4	212	213	215	214
4	216	217	219	218
4	220	221	223	222
4	224	225	227	226
4	228	229	231	230
4	232	233	235	234
4	236	237	239	238
4	240	241	243	242
4	244	245	247	246
4	248	249	251	250
4	252	253	255	254

CELL_TYPES 64
 9 9 9 9 9 9 9 9 9 9 9 9 9 9 9 9 9 9 9 9 9 9 9 9 9 9 9 9 9 9 9 9 9 9 9 9 9 9 9 9 9 9 9 9 9 9 9 9 9 9 9 9 9 9 9 9 9 9 9 9 9 9 9 9
POINT_DATA 256
VECTORS displacement double
0 0 0
2.54377e-06 3.97376e-06 0
0 0 0
1.85996e-06 3.78879e-06 0
2.54377e-06 3.97376e-06 0
4.8517e-06 1.35551e-05 0
1.85996e-06 3.78879e-06 0
3.63418e-06 1.3448e-05 0
0 0 0
1.85996e-06 3.78879e-06 0
0 0 0
1.21944e-06 3.6579e-06 0
1.85996e-06 3.78879e-06 0
3.63418e-06 1.3448e-05 0
1.21944e-06 3.6579e-06 0
2.41863e-06 1.33695e-05 0
4.8517e-06 1.35551e-05 0
6.47876e-06 2.80568e-05 0
3.63418e-06 1.3448e-05 0
4.8443e-06 2.79771e-05 0
6.47876e-06 2.80568e-05 0
7.5769e-06 4.58984e-05 0
4.8443e-06 2.79771e-05 0
5.6732e-06 4.58479e-05 0
3.63418e-06 1.3448e-05 0
4.8443e-06 2.79771e-05 0
2.41863e-06 1.33695e-05 0
3.22354e-06 2.7921e-05 0
4.8443e-06 2.79771e-05 0
5.6732e-06 4.58479e-05 0
3.22354e-06 2.7921e-05 0
3.77721e-06 4.58113e-05 0
0 0 0
1.21944e-06 3.6579e-06 0
0 0 0
6.03964e-07 3.5799e-06 0
1.21944e-06 3.6579e-06 0
2.41863e-06 1.33695e-05 0
6.03964e-07 3.5799e-06 0
1.20773e-06 1.33216e-05 0
0 0 0
6.03964e-07 3.5799e-06 0
0 0 0
-5.71059e-19 3.554e-06 0
6.03964e-07 3.5799e-06 0
1.20773e-06 1.33216e-05 0
-5.71059e-19 3.554e-06 0
-1.3193e-18 1.33055e-05 0
2.41863e-06 1.33695e-05 0
3.22354e-06 2.7921e-05 0
1.20773e-06 1.33216e-05 0
1.61013e-06 2.78876e-05 0
3.22354e-06 2.7921e-05 0
3.77721e-06 4.58113e-05 0
1.61013e-06 2.78876e-05 0
1.88707e-06 4.57891e-05 0
1.20773e-06 1.33216e-05 0
1.61013e-06 2.78876e-05 0
-1.3193e-18 1.33055e-05 0
-2.03072e-18 2.78765e-05 0
1.61013e-06 2.78876e-05 0
1.88707e-06 4.57891e-05 0
-2.03072e-18 2.78765e-05 0
-2.62204e-18 4.57818e-05 0
7.5769e-06 4.58984e-05 0
8.25059e-06 6.58958e-05 0
5.6732e-06 4.58479e-05 0
6.18039e-06 6.58668e-05 0
8.25059e-06 6.58958e-05 0
8.60354e-06 8.71164e-05 0
6.18039e-06 6.58668e-05 0
6.44763e-06 8.71031e-05 0
5.6732e-06 4.58479e-05 0
6.18039e-06 6.58668e-05 0
3.77721e-06 4.58113e-05 0
4.1168e-06 6.58459e-05 0
6.18039e-06 6.58668e-05 0
6.44763e-06 8.71031e-05 0
4.1168e-06 6.58459e-05 0
4.296e-06 8.70933e-05 0
8.60354e-06 8.71164e-05 0
8.74161e-06 0.00010889 0
6.44763e-06 8.71031e-05 0
6.5538e-06 0.000108886 0
8.74161e-06 0.00010889 0
8.77259e-06 0.000130814 0
6.5538e-06 0.000108886 0
6.57887e-06 0.000130813 0
6.44763e-06 8.71031e-05 0
6.5538e-06 0.000108886 0
4.296e-06 8.70933e-05 0
4.36805e-06 0.000108883 0
6.5538e-06 0.000108886 0
6.57887e-06 0.000130813 0
4.36805e-06 0.000108883 0
4.38561e-06 0.000130812 0
3.77721e-06 4.58113e-05 0
4.1168e-06 6.58459e-05 0
1.88707e-06 4.57891e-05 0
2.05738e-06 6.58334e-05 0
4.1168e-06 6.58459e-05 0
4.296e-06 8.70933e-05 0
2.05738e-06 6.58334e-05 0
2.14727e-06 8.70874e-05 0
1.88707e-06 4.57891e-05 0
2.05738e-06 6.58334e-05 0
-2.62204e-18 4.57818e-05 0
-3.18376e-18 6.58292e-05 0
2.05738e-06 6.58334e-05 0
2.14727e-06 8.70874e-05 0
-3.18376e-18 6.58292e-05 0
-3.92166e-18 8.70854e-05 0
4.296e-06 8.70933e-05 0
4.36805e-06 0.000108883 0
2.14727e-06 8.70874e-05 0
2.18368e-06 0.000108881 0
4.36805e-06 0.000108883 0
4.38561e-06 0.000130812 0
2.18368e-06 0.000108881 0
2.19271e-06 0.000130812 0
2.14727e-06 8.70874e-05 0
2.18368e-06 0.000108881 0
-3.92166e-18 8.70854e-05 0
-4.24015e-18 0.000108881 0
2.18368e-06 0.000108881 0
2.19271e-06 0.000130812 0
-4.24015e-18 0.000108881 0
-4.0804e-18 0.000130811 0
0 0 0
-5.71059e-19 3.554e-06 0
0 0 0
-6.03964e-07 3.5799e-06 0
-5.71059e-19 3.554e-06 0
-1.3193e-18 1.33055e-05 0
-6.03964e-07 3.5799e-06 0
-1.20773e-06 1.33216e-05 0
0 0 0
-6.03964e-07 3.5799e-06 0
0 0 0
-1.21944e-06 3.6579e-06 0
-6.03964e-07 3.5799e-06 0
-1.20773e-06 1.33216e-05 0
-1.21944e-06 3.6579e-06 0
-2.41863e-06 1.33695e-05 0
-1.3193e-18 1.33055e-05 0
-2.03072e-18 2.78765e-05 0
-1.20773e-06 1.33216e-05 0
-1.61013e-06 2.78876e-05 0
-2.03072e-18 2.78765e-05 0
-2.62204e-18 4.57818e-05 0
-1.61013e-06 2.78876e-05 0
-1.88707e-06 4.57891e-05 0
-1.20773e-06 1.33216e-05 0
-1.61013e-06 2.78876e-05 0
-2.41863e-06 1.33695e-05 0
-3.22354e-06 2.7921e-05 0
-1.61013e-06 2.78876e-05 0
-1.88707e-06 4.57891e-05 0
-3.22354e-06 2.7921e-05 0
-3.77721e-06 4.58113e-05 0
0 0 0
-1.21944e-06 3.6579e-06 0
0 0 0
-1.85996e-06 3.78879e-06 0
-1.21944e-06 3.6579e-06 0
-2.41863e-06 1.33695e-05 0
-1.85996e-06 3.78879e-06 0
-3.63418e-06 1.3448e-05 0
0 0 0
-1.85996e-06 3.78879e-06 0
0 0 0
-2.54377e-06 3.97376e-06 0
-1.85996e-06 3.78879e-06 0
-3.63418e-06 1.3448e-05 0
-2.54377e-06 3.97376e-06 0
-4.8517e-06 1.35551e-05 0
-2.41863e-06 1.33695e-05 0
-3.22354e-06 2.7921e-05 0
-3.63418e-06 1.3448e-05 0
-4.8443e-06 2.79771e-05 0
-3.22354e-06 2.7921e-05 0
-3.77721e-06 4.58113e-05 0
-4.8443e-06 2.79771e-05 0
-5.6732e-06 4.58479e-05 0
-3.63418e-06 1.3448e-05 0
-4.8443e-06 2.79771e-05 0
-4.8517e-06 1.35551e-05 0
-6.47876e-06 2.80568e-05 0
-4.8443e-06 2.79771e-05 0
-5.6732e-06 4.58479e-05 0
-6.47876e-06 2.80568e-05 0
-7.5769e-06 4.58984e-05 0
-2.62204e-18 4.57818e-05 0
-3.18376e-18 6.58292e-05 0
-1.88707e-06 4.57891e-05 0
-2.05738e-06 6.58334e-05 0
-3.18376e-18 6.58292e-05 0
-3.92166e-18 8.70854e-05 0
-2.05738e-06 6.58334e-05 0
-2.14727e-06 8.70874e-05 0
-1.88707e-06 4.57891e-05 0
-2.05738e-06 6.58334e-05 0
-3.77721e-06 4.58113e-05 0
-4.1168e-06 6.58459e-05 0
-2.05738e-06 6.58334e-05 0
-2.14727e-06 8.70874e-05 0
-4.1168e-06 6.58459e-05 0
-4.296e-06 8.70933e-05 0
-3.92166e-18 8.70854e-05 0
-4.24015e-18 0.000108881 0
-2.14727e-06 8.70874e-05 0
-2.18368e-06 0.000108881 0
-4.24015e-18 0.000108881 0
-4.0804e-18 0.000130811 0
-2.18368e-06 0.000108881 0
-2.19271e-06 0.000130812 0
-2.14727e-06 8.70874e-05 0
-2.18368e-06 0.000108881 0
-4.296e-06 8.70933e-05 0
-4.36805e-06 0.000108883 0
-2.18368e-06 0.000108881 0
-2.19271e-06 0.000130812 0
-4.36805e-06 0.000108883 0
-4.38561e-06 0.000130812 0
-3.77721e-06 4.58113e-05 0
-4.1168e-06 6.58459e-05 0
-5.6732e-06 4.58479e-05 0
-6.18039e-06 6.58668e-05 0
-4.1168e-06 6.58459e-05 0
-4.296e-06 8.70933e-05 0
-6.18039e-06 6.58668e-05 0
-6.44763e-06 8.71031e-05 0
-5.6732e-06 4.58479e-05 0
-6.18039e-06 6.58668e-05 0
-7.5769e-06 4.58984e-05 0
-8.25059e-06 6.58958e-05 0
-6.18039e-06 6.58668e-05 0
-6.44763e-06 8.71031e-05 0
-8.25059e-06 6.58958e-05 0
-8.60354e-06 8.71164e-05 0
-4.296e-06 8.70933e-05 0
-4.36805e-06 0.000108883 0
-6.44763e-06 8.71031e-05 0
-6.5538e-06 0.000108886 0
-4.36805e-06 0.000108883 0
-4.38561e-06 0.000130812 0
-6.5538e-06 0.000108886 0
-6.57887e-06 0.000130813 0
-6.44763e-06 8.71031e-05 0
-6.5538e-06 0.000108886 0
-8.60354e-06 8.71164e-05 0
-8.74161e-06 0.00010889 0
-6.5538e-06 0.000108886 0
-6.57887e-06 0.000130813 0
-8.74161e-06 0.00010889 0
-8.77259e-06 0.000130814 0
VECTORS velocity double
0 0 0
-2.35411e-05 -3.62664e-05 0
0 0 0
-1.72359e-05 -3.45405e-05 0
-2.35411e-05 -3.62664e-05 0
-4.54849e-05 -0.000125411 0
-1.72359e-05 -3.45405e-05 0
-3.40761e-05 -0.000124373 0
0 0 0
-1.72359e-05 -3.45405e-05 0
0 0 0
-1.13106e-05 -3.33186e-05 0
-1.72359e-05 -3.45405e-05 0
-3.40761e-05 -0.000124373 0
-1.13106e-05 -3.33186e-05 0
-2.26819e-05 -0.000123614 0
-4.54849e-05 -0.000125411 0
-6.14394e-05 -0.000262107 0
-3.40761e-05 -0.000124373 0
-4.5944e-05 -0.000261315 0
-6.14394e-05 -0.000262107 0
-7.25411e-05 -0.000432145 0
-4.5944e-05 -0.000261315 0
-5.43142e-05 -0.000431625 0
-3.40761e-05 -0.000124373 0
-4.5944e-05 -0.000261315 0
-2.26819e-05 -0.000123614 0
-3.05741e-05 -0.000260756 0
-4.5944e-05 -0.000261315 0
-5.43142e-05 -0.000431625 0
-3.05741e-05 -0.000260756 0
-3.61621e-05 -0.00043125 0
0 0 0
-1.13106e-05 -3.33186e-05 0
0 0 0
-5.60488e-06 -3.25902e-05 0
-1.13106e-05 -3.33186e-05 0
-2.26819e-05 -0.000123614 0
-5.60488e-06 -3.25902e-05 0
-1.13273e-05 -0.000123152 0
0 0 0
-5.60488e-06 -3.25902e-05 0
0 0 0
2.42243e-17 -3.23482e-05 0
-5.60488e-06 -3.25902e-05 0
-1.13273e-05 -0.000123152 0
2.42243e-17 -3.23482e-05 0
5.54768e-17 -0.000122997 0
-2.26819e-05 -0.000123614 0
-3.05741e-05 -0.000260756 0
-1.13273e-05 -0.000123152 0
-1.52719e-05 -0.000260423 0
-3.05741e-05 -0.000260756 0
-3.61621e-05 -0.00043125 0
-1.52719e-05 -0.000260423 0
-1.80664e-05 -0.000431023 0
-1.13273e-05 -0.000123152 0
-1.52719e-05 -0.000260423 0
5.54768e-17 -0.000122997 0
8.36601e-17 -0.000260312 0
-1.52719e-05 -0.000260423 0
-1.80664e-05 -0.000431023 0
8.36601e-17 -0.000260312 0
1.09744e-16 -0.000430948 0
-7.25411e-05 -0.000432145 0
-7.95593e-05 -0.000624374 0
-5.43142e-05 -0.000431625 0
-5.95931e-05 -0.000624067 0
-7.95593e-05 -0.000624374 0
-8.33454e-05 -0.000829588 0
-5.95931e-05 -0.000624067 0
-6.24558e-05 -0.000829443 0
-5.43142e-05 -0.000431625 0
-5.95931e-05 -0.000624067 0
-3.61621e-05 -0.00043125 0
-3.96936e-05 -0.000623847 0
-5.95931e-05 -0.000624067 0
-6.24558e-05 -0.000829443 0
-3.96936e-05 -0.000623847 0
-4.16116e-05 -0.000829337 0
-8.33454e-05 -0.000829588 0
-8.4868e-05 -0.00104085 0
-6.24558e-05 -0.000829443 0
-6.36244e-05 -0.00104081 0
-8.4868e-05 -0.00104085 0
-8.52189e-05 -0.00125381 0
-6.36244e-05 -0.00104081 0
-6.39075e-05 -0.0012538 0
-6.24558e-05 -0.000829443 0
-6.36244e-05 -0.00104081 0
-4.16116e-05 -0.000829337 0
-4.24036e-05 -0.00104078 0
-6.36244e-05 -0.00104081 0
-6.39075e-05 -0.0012538 0
-4.24036e-05 -0.00104078 0
-4.26015e-05 -0.00125379 0
-3.61621e-05 -0.00043125 0
-3.96936e-05 -0.000623847 0
-1.80664e-05 -0.000431023 0
-1.98364e-05 -0.000623714 0
-3.96936e-05 -0.000623847 0
-4.16116e-05 -0.000829337 0
-1.98364e-05 -0.000623714 0
-2.07981e-05 -0.000829272 0
-1.80664e-05 -0.000431023 0
-1.98364e-05 -0.000623714 0
1.09744e-16 -0.000430948 0
1.26213e-16 -0.00062367 0
-1.98364e-05 -0.000623714 0
-2.07981e-05 -0.000829272 0
1.26213e-16 -0.00062367 0
1.43877e-16 -0.000829251 0
-4.16116e-05 -0.000829337 0
-4.24036e-05 -0.00104078 0
-2.07981e-05 -0.000829272 0
-2.1198e-05 -0.00104075 0
-4.24036e-05 -0.00104078 0
-4.26015e-05 -0.00125379 0
-2.1198e-05 -0.00104075 0
-2.12997e-05 -0.00125379 0
-2.07981e-05 -0.000829272 0
-2.1198e-05 -0.00104075 0
1.43877e-16 -0.000829251 0
1.39684e-16 -0.00104075 0
-2.1198e-05 -0.00104075 0
-2.12997e-05 -0.00125379 0
1.39684e-16 -0.00104075 0
1.26e-16 -0.00125378 0
0 0 0
2.42243e-17 -3.23482e-05 0
0 0 0
5.60488e-06 -3.25902e-05 0
2.42243e-17 -3.23482e-05 0
5.54768e-17 -0.000122997 0
5.60488e-06 -3.25902e-05 0
1.13273e-05 -0.000123152 0
0 0 0
5.60488e-06 -3.25902e-05 0
0 0 0
1.13106e-05 -3.33186e-05 0
5.60488e-06 -3.25902e-05 0
1.13273e-05 -0.000123152 0
1.13106e-05 -3.33186e-05 0
2.26819e-05 -0.000123614 0
5.54768e-17 -0.000122997 0
8.36601e-17 -0.000260312 0
1.13273e-05 -0.000123152 0
1.52719e-05 -0.000260423 0
8.36601e-17 -0.000260312 0
1.09744e-16 -0.000430948 0
1.52719e-05 -0.000260423 0
1.80664e-05 -0.000431023 0
1.13273e-05 -0.000123152 0
1.52719e-05 -0.000260423 0
2.26819e-05 -0.000123614 0
3.05741e-05 -0.000260756 0
1.52719e-05 -0.000260423 0
1.80664e-05 -0.000431023 0
3.05741e-05 -0.000260756 0
3.61621e-05 -0.00043125 0
0 0 0
1.13106e-05 -3.33186e-05 0
0 0 0
1.72359e-05 -3.45405e-05 0
1.13106e-05 -3.33186e-05 0
2.26819e-05 -0.000123614 0
1.72359e-05 -3.45405e-05 0
3.40761e-05 -0.000124373 0
0 0 0
1.72359e-05 -3.45405e-05 0
0 0 0
2.35411e-05 -3.62664e-05 0
1.72359e-05 -3.45405e-05 0
3.40761e-05 -0.000124373 0
2.35411e-05 -3.62664e-05 0
4.54849e-05 -0.000125411 0
2.26819e-05 -0.000123614 0
3.05741e-05 -0.000260756 0
3.40761e-05 -0.000124373 0
4.5944e-05 -0.000261315 0
3.05741e-05 -0.000260756 0
3.61621e-05 -0.00043125 0
4.5944e-05 -0.000261315 0
5.43142e-05 -0.000431625 0
3.40761e-05 -0.000124373 0
4.5944e-05 -0.000261315 0
4.54849e-05 -0.000125411 0
6.14394e-05 -0.000262107 0
4.5944e-05 -0.000261315 0
5.43142e-05 -0.000431625 0
6.14394e-05 -0.000262107 0
7.25411e-05 -0.000432145 0
1.09744e-16 -0.000430948 0
1.26213e-16 -0.00062367 0
1.80664e-05 -0.000431023 0
1.98364e-05 -0.000623714 0
1.26213e-16 -0.00062367 0
1.43877e-16 -0.000829251 0
1.98364e-05 -0.000623714 0
2.07981e-05 -0.000829272 0
1.80664e-05 -0.000431023 0
1.98364e-05 -0.000623714 0
3.61621e-05 -0.00043125 0
3.96936e-05 -0.000623847 0
1.98364e-05 -0.000623714 0
2.07981e-05 -0.000829272 0
3.96936e-05 -0.000623847 0
4.16116e-05 -0.000829337 0
1.43877e-16 -0.000829251 0
1.39684e-16 -0.00104075 0
2.07981e-05 -0.000829272 0
2.1198e-05 -0.00104075 0
1.39684e-16 -0.00104075 0
1.26e-16 -0.00125378 0
2.1198e-05 -0.00104075 0
2.12997e-05 -0.00125379 0
2.07981e-05 -0.000829272 0
2.1198e-05 -0.00104075 0
4.16116e-05 -0.000829337 0
4.24036e-05 -0.00104078 0
2.1198e-05 -0.00104075 0
2.12997e-05 -0.00125379 0
4.24036e-05 -0.00104078 0
4.26015e-05 -0.00125379 0
3.61621e-05 -0.00043125 0
3.96936e-05 -0.000623847 0
5.43142e-05 -0.000431625 0
5.95931e-05 -0.000624067 0
3.96936e-05 -0.000623847 0
4.16116e-05 -0.000829337 0
5.95931e-05 -0.000624067 0
6.24558e-05 -0.000829443 0
5.43142e-05 -0.000431625 0
5.95931e-05 -0.000624067 0
7.25411e-05 -0.000432145 0
7.95593e-05 -0.000624374 0
5.95931e-05 -0.000624067 0
6.24558e-05 -0.000829443 0
7.95593e-05 -0.000624374 0
8.33454e-05 -0.000829588 0
4.16116e-05 -0.000829337 0
4.24036e-05 -0.00104078 0
6.24558e-05 -0.000829443 0
6.36244e-05 -0.00104081 0
4.24036e-05 -0.00104078 0
4.26015e-05 -0.00125379 0
6.36244e-05 -0.00104081 0
6.39075e-05 -0.0012538 0
6.24558e-05 -0.000829443 0
6.36244e-05 -0.00104081 0
8.33454e-05 -0.000829588 0
8.4868e-05 -0.00104085 0
6.36244e-05 -0.00104081 0
6.39075e-05 -0.0012538 0
8.4868e-05 -0.00104085 0
8.52189e-05 -0.00125381 0
