# vtk DataFile Version 3.0
#This file was generated by the deal.II library on 2025/3/11 at 13:44:11
ASCII
DATASET UNSTRUCTURED_GRID

FIELD FieldData 1
TIME 1 1 double
3.5325
POINTS 256 double
0 0 0
0.625 0 0
0 0.0625 0
0.625 0.0625 0
0.625 0 0
1.25 0 0
0.625 0.0625 0
1.25 0.0625 0
0 0.0625 0
0.625 0.0625 0
0 0.125 0
0.625 0.125 0
0.625 0.0625 0
1.25 0.0625 0
0.625 0.125 0
1.25 0.125 0
1.25 0 0
1.875 0 0
1.25 0.0625 0
1.875 0.0625 0
1.875 0 0
2.5 0 0
1.875 0.0625 0
2.5 0.0625 0
1.25 0.0625 0
1.875 0.0625 0
1.25 0.125 0
1.875 0.125 0
1.875 0.0625 0
2.5 0.0625 0
1.875 0.125 0
2.5 0.125 0
0 0.125 0
0.625 0.125 0
0 0.1875 0
0.625 0.1875 0
0.625 0.125 0
1.25 0.125 0
0.625 0.1875 0
1.25 0.1875 0
0 0.1875 0
0.625 0.1875 0
0 0.25 0
0.625 0.25 0
0.625 0.1875 0
1.25 0.1875 0
0.625 0.25 0
1.25 0.25 0
1.25 0.125 0
1.875 0.125 0
1.25 0.1875 0
1.875 0.1875 0
1.875 0.125 0
2.5 0.125 0
1.875 0.1875 0
2.5 0.1875 0
1.25 0.1875 0
1.875 0.1875 0
1.25 0.25 0
1.875 0.25 0
1.875 0.1875 0
2.5 0.1875 0
1.875 0.25 0
2.5 0.25 0
2.5 0 0
3.125 0 0
2.5 0.0625 0
3.125 0.0625 0
3.125 0 0
3.75 0 0
3.125 0.0625 0
3.75 0.0625 0
2.5 0.0625 0
3.125 0.0625 0
2.5 0.125 0
3.125 0.125 0
3.125 0.0625 0
3.75 0.0625 0
3.125 0.125 0
3.75 0.125 0
3.75 0 0
4.375 0 0
3.75 0.0625 0
4.375 0.0625 0
4.375 0 0
5 0 0
4.375 0.0625 0
5 0.0625 0
3.75 0.0625 0
4.375 0.0625 0
3.75 0.125 0
4.375 0.125 0
4.375 0.0625 0
5 0.0625 0
4.375 0.125 0
5 0.125 0
2.5 0.125 0
3.125 0.125 0
2.5 0.1875 0
3.125 0.1875 0
3.125 0.125 0
3.75 0.125 0
3.125 0.1875 0
3.75 0.1875 0
2.5 0.1875 0
3.125 0.1875 0
2.5 0.25 0
3.125 0.25 0
3.125 0.1875 0
3.75 0.1875 0
3.125 0.25 0
3.75 0.25 0
3.75 0.125 0
4.375 0.125 0
3.75 0.1875 0
4.375 0.1875 0
4.375 0.125 0
5 0.125 0
4.375 0.1875 0
5 0.1875 0
3.75 0.1875 0
4.375 0.1875 0
3.75 0.25 0
4.375 0.25 0
4.375 0.1875 0
5 0.1875 0
4.375 0.25 0
5 0.25 0
0 0.25 0
0.625 0.25 0
0 0.3125 0
0.625 0.3125 0
0.625 0.25 0
1.25 0.25 0
0.625 0.3125 0
1.25 0.3125 0
0 0.3125 0
0.625 0.3125 0
0 0.375 0
0.625 0.375 0
0.625 0.3125 0
1.25 0.3125 0
0.625 0.375 0
1.25 0.375 0
1.25 0.25 0
1.875 0.25 0
1.25 0.3125 0
1.875 0.3125 0
1.875 0.25 0
2.5 0.25 0
1.875 0.3125 0
2.5 0.3125 0
1.25 0.3125 0
1.875 0.3125 0
1.25 0.375 0
1.875 0.375 0
1.875 0.3125 0
2.5 0.3125 0
1.875 0.375 0
2.5 0.375 0
0 0.375 0
0.625 0.375 0
0 0.4375 0
0.625 0.4375 0
0.625 0.375 0
1.25 0.375 0
0.625 0.4375 0
1.25 0.4375 0
0 0.4375 0
0.625 0.4375 0
0 0.5 0
0.625 0.5 0
0.625 0.4375 0
1.25 0.4375 0
0.625 0.5 0
1.25 0.5 0
1.25 0.375 0
1.875 0.375 0
1.25 0.4375 0
1.875 0.4375 0
1.875 0.375 0
2.5 0.375 0
1.875 0.4375 0
2.5 0.4375 0
1.25 0.4375 0
1.875 0.4375 0
1.25 0.5 0
1.875 0.5 0
1.875 0.4375 0
2.5 0.4375 0
1.875 0.5 0
2.5 0.5 0
2.5 0.25 0
3.125 0.25 0
2.5 0.3125 0
3.125 0.3125 0
3.125 0.25 0
3.75 0.25 0
3.125 0.3125 0
3.75 0.3125 0
2.5 0.3125 0
3.125 0.3125 0
2.5 0.375 0
3.125 0.375 0
3.125 0.3125 0
3.75 0.3125 0
3.125 0.375 0
3.75 0.375 0
3.75 0.25 0
4.375 0.25 0
3.75 0.3125 0
4.375 0.3125 0
4.375 0.25 0
5 0.25 0
4.375 0.3125 0
5 0.3125 0
3.75 0.3125 0
4.375 0.3125 0
3.75 0.375 0
4.375 0.375 0
4.375 0.3125 0
5 0.3125 0
4.375 0.375 0
5 0.375 0
2.5 0.375 0
3.125 0.375 0
2.5 0.4375 0
3.125 0.4375 0
3.125 0.375 0
3.75 0.375 0
3.125 0.4375 0
3.75 0.4375 0
2.5 0.4375 0
3.125 0.4375 0
2.5 0.5 0
3.125 0.5 0
3.125 0.4375 0
3.75 0.4375 0
3.125 0.5 0
3.75 0.5 0
3.75 0.375 0
4.375 0.375 0
3.75 0.4375 0
4.375 0.4375 0
4.375 0.375 0
5 0.375 0
4.375 0.4375 0
5 0.4375 0
3.75 0.4375 0
4.375 0.4375 0
3.75 0.5 0
4.375 0.5 0
4.375 0.4375 0
5 0.4375 0
4.375 0.5 0
5 0.5 0

CELLS 64 320
4	0	1	3	2
4	4	5	7	6
4	8	9	11	10
4	12	13	15	14
4	16	17	19	18
4	20	21	23	22
4	24	25	27	26
4	28	29	31	30
4	32	33	35	34
4	36	37	39	38
4	40	41	43	42
4	44	45	47	46
4	48	49	51	50
4	52	53	55	54
4	56	57	59	58
4	60	61	63	62
4	64	65	67	66
4	68	69	71	70
4	72	73	75	74
4	76	77	79	78
4	80	81	83	82
4	84	85	87	86
4	88	89	91	90
4	92	93	95	94
4	96	97	99	98
4	100	101	103	102
4	104	105	107	106
4	108	109	111	110
4	112	113	115	114
4	116	117	119	118
4	120	121	123	122
4	124	125	127	126
4	128	129	131	130
4	132	133	135	134
4	136	137	139	138
4	140	141	143	142
4	144	145	147	146
4	148	149	151	150
4	152	153	155	154
4	156	157	159	158
4	160	161	163	162
4	164	165	167	166
4	168	169	171	170
4	172	173	175	174
4	176	177	179	178
4	180	181	183	182
4	184	185	187	186
4	188	189	191	190
4	192	193	195	194
4	196	197	199	198
4	200	201	203	202
4	204	205	207	206
4	208	209	211	210
4	212	213	215	214
4	216	217	219	218
4	220	221	223	222
4	224	225	227	226
4	228	229	231	230
4	232	233	235	234
4	236	237	239	238
4	240	241	243	242
4	244	245	247	246
4	248	249	251	250
4	252	253	255	254

CELL_TYPES 64
 9 9 9 9 9 9 9 9 9 9 9 9 9 9 9 9 9 9 9 9 9 9 9 9 9 9 9 9 9 9 9 9 9 9 9 9 9 9 9 9 9 9 9 9 9 9 9 9 9 9 9 9 9 9 9 9 9 9 9 9 9 9 9 9
POINT_DATA 256
VECTORS displacement double
0 0 0
-5.61473e-06 -8.7714e-06 0
0 0 0
-4.10537e-06 -8.36314e-06 0
-5.61473e-06 -8.7714e-06 0
-1.07085e-05 -2.99195e-05 0
-4.10537e-06 -8.36314e-06 0
-8.02126e-06 -2.96832e-05 0
0 0 0
-4.10537e-06 -8.36314e-06 0
0 0 0
-2.6916e-06 -8.07424e-06 0
-4.10537e-06 -8.36314e-06 0
-8.02126e-06 -2.96832e-05 0
-2.6916e-06 -8.07424e-06 0
-5.33831e-06 -2.95099e-05 0
-1.07085e-05 -2.99195e-05 0
-1.42993e-05 -6.19267e-05 0
-8.02126e-06 -2.96832e-05 0
-1.06918e-05 -6.17509e-05 0
-1.42993e-05 -6.19267e-05 0
-1.67225e-05 -0.000101304 0
-1.06918e-05 -6.17509e-05 0
-1.2521e-05 -0.000101193 0
-8.02126e-06 -2.96832e-05 0
-1.06918e-05 -6.17509e-05 0
-5.33831e-06 -2.95099e-05 0
-7.11466e-06 -6.16271e-05 0
-1.06918e-05 -6.17509e-05 0
-1.2521e-05 -0.000101193 0
-7.11466e-06 -6.16271e-05 0
-8.33646e-06 -0.000101112 0
0 0 0
-2.6916e-06 -8.07424e-06 0
0 0 0
-1.33309e-06 -7.90209e-06 0
-2.6916e-06 -8.07424e-06 0
-5.33831e-06 -2.95099e-05 0
-1.33309e-06 -7.90209e-06 0
-2.66566e-06 -2.94042e-05 0
0 0 0
-1.33309e-06 -7.90209e-06 0
0 0 0
-4.25972e-19 -7.84491e-06 0
-1.33309e-06 -7.90209e-06 0
-2.66566e-06 -2.94042e-05 0
-4.25972e-19 -7.84491e-06 0
-9.37035e-19 -2.93687e-05 0
-5.33831e-06 -2.95099e-05 0
-7.11466e-06 -6.16271e-05 0
-2.66566e-06 -2.94042e-05 0
-3.55371e-06 -6.15533e-05 0
-7.11466e-06 -6.16271e-05 0
-8.33646e-06 -0.000101112 0
-3.55371e-06 -6.15533e-05 0
-4.16485e-06 -0.000101063 0
-2.66566e-06 -2.94042e-05 0
-3.55371e-06 -6.15533e-05 0
-9.37035e-19 -2.93687e-05 0
-1.41347e-18 -6.15288e-05 0
-3.55371e-06 -6.15533e-05 0
-4.16485e-06 -0.000101063 0
-1.41347e-18 -6.15288e-05 0
-1.65673e-18 -0.000101047 0
-1.67225e-05 -0.000101304 0
-1.8209e-05 -0.000145439 0
-1.2521e-05 -0.000101193 0
-1.36401e-05 -0.000145375 0
-1.8209e-05 -0.000145439 0
-1.89877e-05 -0.000192272 0
-1.36401e-05 -0.000145375 0
-1.42297e-05 -0.000192243 0
-1.2521e-05 -0.000101193 0
-1.36401e-05 -0.000145375 0
-8.33646e-06 -0.000101112 0
-9.08576e-06 -0.000145329 0
-1.36401e-05 -0.000145375 0
-1.42297e-05 -0.000192243 0
-9.08576e-06 -0.000145329 0
-9.48112e-06 -0.000192221 0
-1.89877e-05 -0.000192272 0
-1.92923e-05 -0.000240326 0
-1.42297e-05 -0.000192243 0
-1.44639e-05 -0.000240317 0
-1.92923e-05 -0.000240326 0
-1.93607e-05 -0.00028871 0
-1.44639e-05 -0.000240317 0
-1.45192e-05 -0.000288708 0
-1.42297e-05 -0.000192243 0
-1.44639e-05 -0.000240317 0
-9.48112e-06 -0.000192221 0
-9.64009e-06 -0.00024031 0
-1.44639e-05 -0.000240317 0
-1.45192e-05 -0.000288708 0
-9.64009e-06 -0.00024031 0
-9.67883e-06 -0.000288707 0
-8.33646e-06 -0.000101112 0
-9.08576e-06 -0.000145329 0
-4.16485e-06 -0.000101063 0
-4.54062e-06 -0.000145301 0
-9.08576e-06 -0.000145329 0
-9.48112e-06 -0.000192221 0
-4.54062e-06 -0.000145301 0
-4.73896e-06 -0.000192208 0
-4.16485e-06 -0.000101063 0
-4.54062e-06 -0.000145301 0
-1.65673e-18 -0.000101047 0
-2.0534e-18 -0.000145292 0
-4.54062e-06 -0.000145301 0
-4.73896e-06 -0.000192208 0
-2.0534e-18 -0.000145292 0
-2.70217e-18 -0.000192204 0
-9.48112e-06 -0.000192221 0
-9.64009e-06 -0.00024031 0
-4.73896e-06 -0.000192208 0
-4.81928e-06 -0.000240306 0
-9.64009e-06 -0.00024031 0
-9.67883e-06 -0.000288707 0
-4.81928e-06 -0.000240306 0
-4.8392e-06 -0.000288706 0
-4.73896e-06 -0.000192208 0
-4.81928e-06 -0.000240306 0
-2.70217e-18 -0.000192204 0
-2.71685e-18 -0.000240305 0
-4.81928e-06 -0.000240306 0
-4.8392e-06 -0.000288706 0
-2.71685e-18 -0.000240305 0
-2.97825e-18 -0.000288705 0
0 0 0
-4.25972e-19 -7.84491e-06 0
0 0 0
1.33309e-06 -7.90209e-06 0
-4.25972e-19 -7.84491e-06 0
-9.37035e-19 -2.93687e-05 0
1.33309e-06 -7.90209e-06 0
2.66566e-06 -2.94042e-05 0
0 0 0
1.33309e-06 -7.90209e-06 0
0 0 0
2.6916e-06 -8.07424e-06 0
1.33309e-06 -7.90209e-06 0
2.66566e-06 -2.94042e-05 0
2.6916e-06 -8.07424e-06 0
5.33831e-06 -2.95099e-05 0
-9.37035e-19 -2.93687e-05 0
-1.41347e-18 -6.15288e-05 0
2.66566e-06 -2.94042e-05 0
3.55371e-06 -6.15533e-05 0
-1.41347e-18 -6.15288e-05 0
-1.65673e-18 -0.000101047 0
3.55371e-06 -6.15533e-05 0
4.16485e-06 -0.000101063 0
2.66566e-06 -2.94042e-05 0
3.55371e-06 -6.15533e-05 0
5.33831e-06 -2.95099e-05 0
7.11466e-06 -6.16271e-05 0
3.55371e-06 -6.15533e-05 0
4.16485e-06 -0.000101063 0
7.11466e-06 -6.16271e-05 0
8.33646e-06 -0.000101112 0
0 0 0
2.6916e-06 -8.07424e-06 0
0 0 0
4.10537e-06 -8.36314e-06 0
2.6916e-06 -8.07424e-06 0
5.33831e-06 -2.95099e-05 0
4.10537e-06 -8.36314e-06 0
8.02126e-06 -2.96832e-05 0
0 0 0
4.10537e-06 -8.36314e-06 0
0 0 0
5.61473e-06 -8.7714e-06 0
4.10537e-06 -8.36314e-06 0
8.02126e-06 -2.96832e-05 0
5.61473e-06 -8.7714e-06 0
1.07085e-05 -2.99195e-05 0
5.33831e-06 -2.95099e-05 0
7.11466e-06 -6.16271e-05 0
8.02126e-06 -2.96832e-05 0
1.06918e-05 -6.17509e-05 0
7.11466e-06 -6.16271e-05 0
8.33646e-06 -0.000101112 0
1.06918e-05 -6.17509e-05 0
1.2521e-05 -0.000101193 0
8.02126e-06 -2.96832e-05 0
1.06918e-05 -6.17509e-05 0
1.07085e-05 -2.99195e-05 0
1.42993e-05 -6.19267e-05 0
1.06918e-05 -6.17509e-05 0
1.2521e-05 -0.000101193 0
1.42993e-05 -6.19267e-05 0
1.67225e-05 -0.000101304 0
-1.65673e-18 -0.000101047 0
-2.0534e-18 -0.000145292 0
4.16485e-06 -0.000101063 0
4.54062e-06 -0.000145301 0
-2.0534e-18 -0.000145292 0
-2.70217e-18 -0.000192204 0
4.54062e-06 -0.000145301 0
4.73896e-06 -0.000192208 0
4.16485e-06 -0.000101063 0
4.54062e-06 -0.000145301 0
8.33646e-06 -0.000101112 0
9.08576e-06 -0.000145329 0
4.54062e-06 -0.000145301 0
4.73896e-06 -0.000192208 0
9.08576e-06 -0.000145329 0
9.48112e-06 -0.000192221 0
-2.70217e-18 -0.000192204 0
-2.71685e-18 -0.000240305 0
4.73896e-06 -0.000192208 0
4.81928e-06 -0.000240306 0
-2.71685e-18 -0.000240305 0
-2.97825e-18 -0.000288705 0
4.81928e-06 -0.000240306 0
4.8392e-06 -0.000288706 0
4.73896e-06 -0.000192208 0
4.81928e-06 -0.000240306 0
9.48112e-06 -0.000192221 0
9.64009e-06 -0.00024031 0
4.81928e-06 -0.000240306 0
4.8392e-06 -0.000288706 0
9.64009e-06 -0.00024031 0
9.67883e-06 -0.000288707 0
8.33646e-06 -0.000101112 0
9.08576e-06 -0.000145329 0
1.2521e-05 -0.000101193 0
1.36401e-05 -0.000145375 0
9.08576e-06 -0.000145329 0
9.48112e-06 -0.000192221 0
1.36401e-05 -0.000145375 0
1.42297e-05 -0.000192243 0
1.2521e-05 -0.000101193 0
1.36401e-05 -0.000145375 0
1.67225e-05 -0.000101304 0
1.8209e-05 -0.000145439 0
1.36401e-05 -0.000145375 0
1.42297e-05 -0.000192243 0
1.8209e-05 -0.000145439 0
1.89877e-05 -0.000192272 0
9.48112e-06 -0.000192221 0
9.64009e-06 -0.00024031 0
1.42297e-05 -0.000192243 0
1.44639e-05 -0.000240317 0
9.64009e-06 -0.00024031 0
9.67883e-06 -0.000288707 0
1.44639e-05 -0.000240317 0
1.45192e-05 -0.000288708 0
1.42297e-05 -0.000192243 0
1.44639e-05 -0.000240317 0
1.89877e-05 -0.000192272 0
1.92923e-05 -0.000240326 0
1.44639e-05 -0.000240317 0
1.45192e-05 -0.000288708 0
1.92923e-05 -0.000240326 0
1.93607e-05 -0.00028871 0
VECTORS velocity double
0 0 0
-2.0447e-05 -3.15572e-05 0
0 0 0
-1.49679e-05 -3.00598e-05 0
-2.0447e-05 -3.15572e-05 0
-3.94405e-05 -0.000108931 0
-1.49679e-05 -3.00598e-05 0
-2.95472e-05 -0.000108035 0
0 0 0
-1.49679e-05 -3.00598e-05 0
0 0 0
-9.82116e-06 -2.89996e-05 0
-1.49679e-05 -3.00598e-05 0
-2.95472e-05 -0.000108035 0
-9.82116e-06 -2.89996e-05 0
-1.9667e-05 -0.000107379 0
-3.94405e-05 -0.000108931 0
-5.31967e-05 -0.00022738 0
-2.95472e-05 -0.000108035 0
-3.97796e-05 -0.000226698 0
-5.31967e-05 -0.00022738 0
-6.27331e-05 -0.000374512 0
-3.97796e-05 -0.000226698 0
-4.69707e-05 -0.000374067 0
-2.95472e-05 -0.000108035 0
-3.97796e-05 -0.000226698 0
-1.9667e-05 -0.000107379 0
-2.64717e-05 -0.000226217 0
-3.97796e-05 -0.000226698 0
-4.69707e-05 -0.000374067 0
-2.64717e-05 -0.000226217 0
-3.12729e-05 -0.000373745 0
0 0 0
-9.82116e-06 -2.89996e-05 0
0 0 0
-4.86645e-06 -2.83677e-05 0
-9.82116e-06 -2.89996e-05 0
-1.9667e-05 -0.000107379 0
-4.86645e-06 -2.83677e-05 0
-9.82154e-06 -0.00010698 0
0 0 0
-4.86645e-06 -2.83677e-05 0
0 0 0
-1.25408e-17 -2.81578e-05 0
-4.86645e-06 -2.83677e-05 0
-9.82154e-06 -0.00010698 0
-1.25408e-17 -2.81578e-05 0
-2.82302e-17 -0.000106846 0
-1.9667e-05 -0.000107379 0
-2.64717e-05 -0.000226217 0
-9.82154e-06 -0.00010698 0
-1.32227e-05 -0.00022593 0
-2.64717e-05 -0.000226217 0
-3.12729e-05 -0.000373745 0
-1.32227e-05 -0.00022593 0
-1.56237e-05 -0.000373551 0
-9.82154e-06 -0.00010698 0
-1.32227e-05 -0.00022593 0
-2.82302e-17 -0.000106846 0
-4.22738e-17 -0.000225835 0
-1.32227e-05 -0.00022593 0
-1.56237e-05 -0.000373551 0
-4.22738e-17 -0.000225835 0
-6.28361e-17 -0.000373486 0
-6.27331e-05 -0.000374512 0
-6.87404e-05 -0.000540667 0
-4.69707e-05 -0.000374067 0
-5.14897e-05 -0.000540404 0
-6.87404e-05 -0.000540667 0
-7.19702e-05 -0.000717911 0
-5.14897e-05 -0.000540404 0
-5.39321e-05 -0.000717787 0
-4.69707e-05 -0.000374067 0
-5.14897e-05 -0.000540404 0
-3.12729e-05 -0.000373745 0
-3.42963e-05 -0.000540216 0
-5.14897e-05 -0.000540404 0
-5.39321e-05 -0.000717787 0
-3.42963e-05 -0.000540216 0
-3.59329e-05 -0.000717697 0
-7.19702e-05 -0.000717911 0
-7.3265e-05 -0.000900306 0
-5.39321e-05 -0.000717787 0
-5.49261e-05 -0.000900268 0
-7.3265e-05 -0.000900306 0
-7.35625e-05 -0.00108414 0
-5.49261e-05 -0.000900268 0
-5.51663e-05 -0.00108413 0
-5.39321e-05 -0.000717787 0
-5.49261e-05 -0.000900268 0
-3.59329e-05 -0.000717697 0
-3.66066e-05 -0.00090024 0
-5.49261e-05 -0.000900268 0
-5.51663e-05 -0.00108413 0
-3.66066e-05 -0.00090024 0
-3.67746e-05 -0.00108412 0
-3.12729e-05 -0.000373745 0
-3.42963e-05 -0.000540216 0
-1.56237e-05 -0.000373551 0
-1.71392e-05 -0.000540103 0
-3.42963e-05 -0.000540216 0
-3.59329e-05 -0.000717697 0
-1.71392e-05 -0.000540103 0
-1.79599e-05 -0.000717642 0
-1.56237e-05 -0.000373551 0
-1.71392e-05 -0.000540103 0
-6.28361e-17 -0.000373486 0
-7.10203e-17 -0.000540065 0
-1.71392e-05 -0.000540103 0
-1.79599e-05 -0.000717642 0
-7.10203e-17 -0.000540065 0
-7.76892e-17 -0.000717624 0
-3.59329e-05 -0.000717697 0
-3.66066e-05 -0.00090024 0
-1.79599e-05 -0.000717642 0
-1.83001e-05 -0.000900222 0
-3.66066e-05 -0.00090024 0
-3.67746e-05 -0.00108412 0
-1.83001e-05 -0.000900222 0
-1.83864e-05 -0.00108412 0
-1.79599e-05 -0.000717642 0
-1.83001e-05 -0.000900222 0
-7.76892e-17 -0.000717624 0
-7.82611e-17 -0.000900216 0
-1.83001e-05 -0.000900222 0
-1.83864e-05 -0.00108412 0
-7.82611e-17 -0.000900216 0
-9.32447e-17 -0.00108411 0
0 0 0
-1.25408e-17 -2.81578e-05 0
0 0 0
4.86645e-06 -2.83677e-05 0
-1.25408e-17 -2.81578e-05 0
-2.82302e-17 -0.000106846 0
4.86645e-06 -2.83677e-05 0
9.82154e-06 -0.00010698 0
0 0 0
4.86645e-06 -2.83677e-05 0
0 0 0
9.82116e-06 -2.89996e-05 0
4.86645e-06 -2.83677e-05 0
9.82154e-06 -0.00010698 0
9.82116e-06 -2.89996e-05 0
1.9667e-05 -0.000107379 0
-2.82302e-17 -0.000106846 0
-4.22738e-17 -0.000225835 0
9.82154e-06 -0.00010698 0
1.32227e-05 -0.00022593 0
-4.22738e-17 -0.000225835 0
-6.28361e-17 -0.000373486 0
1.32227e-05 -0.00022593 0
1.56237e-05 -0.000373551 0
9.82154e-06 -0.00010698 0
1.32227e-05 -0.00022593 0
1.9667e-05 -0.000107379 0
2.64717e-05 -0.000226217 0
1.32227e-05 -0.00022593 0
1.56237e-05 -0.000373551 0
2.64717e-05 -0.000226217 0
3.12729e-05 -0.000373745 0
0 0 0
9.82116e-06 -2.89996e-05 0
0 0 0
1.49679e-05 -3.00598e-05 0
9.82116e-06 -2.89996e-05 0
1.9667e-05 -0.000107379 0
1.49679e-05 -3.00598e-05 0
2.95472e-05 -0.000108035 0
0 0 0
1.49679e-05 -3.00598e-05 0
0 0 0
2.0447e-05 -3.15572e-05 0
1.49679e-05 -3.00598e-05 0
2.95472e-05 -0.000108035 0
2.0447e-05 -3.15572e-05 0
3.94405e-05 -0.000108931 0
1.9667e-05 -0.000107379 0
2.64717e-05 -0.000226217 0
2.95472e-05 -0.000108035 0
3.97796e-05 -0.000226698 0
2.64717e-05 -0.000226217 0
3.12729e-05 -0.000373745 0
3.97796e-05 -0.000226698 0
4.69707e-05 -0.000374067 0
2.95472e-05 -0.000108035 0
3.97796e-05 -0.000226698 0
3.94405e-05 -0.000108931 0
5.31967e-05 -0.00022738 0
3.97796e-05 -0.000226698 0
4.69707e-05 -0.000374067 0
5.31967e-05 -0.00022738 0
6.27331e-05 -0.000374512 0
-6.28361e-17 -0.000373486 0
-7.10203e-17 -0.000540065 0
1.56237e-05 -0.000373551 0
1.71392e-05 -0.000540103 0
-7.10203e-17 -0.000540065 0
-7.76892e-17 -0.000717624 0
1.71392e-05 -0.000540103 0
1.79599e-05 -0.000717642 0
1.56237e-05 -0.000373551 0
1.71392e-05 -0.000540103 0
3.12729e-05 -0.000373745 0
3.42963e-05 -0.000540216 0
1.71392e-05 -0.000540103 0
1.79599e-05 -0.000717642 0
3.42963e-05 -0.000540216 0
3.59329e-05 -0.000717697 0
-7.76892e-17 -0.000717624 0
-7.82611e-17 -0.000900216 0
1.79599e-05 -0.000717642 0
1.83001e-05 -0.000900222 0
-7.82611e-17 -0.000900216 0
-9.32447e-17 -0.00108411 0
1.83001e-05 -0.000900222 0
1.83864e-05 -0.00108412 0
1.79599e-05 -0.000717642 0
1.83001e-05 -0.000900222 0
3.59329e-05 -0.000717697 0
3.66066e-05 -0.00090024 0
1.83001e-05 -0.000900222 0
1.83864e-05 -0.00108412 0
3.66066e-05 -0.00090024 0
3.67746e-05 -0.00108412 0
3.12729e-05 -0.000373745 0
3.42963e-05 -0.000540216 0
4.69707e-05 -0.000374067 0
5.14897e-05 -0.000540404 0
3.42963e-05 -0.000540216 0
3.59329e-05 -0.000717697 0
5.14897e-05 -0.000540404 0
5.39321e-05 -0.000717787 0
4.69707e-05 -0.000374067 0
5.14897e-05 -0.000540404 0
6.27331e-05 -0.000374512 0
6.87404e-05 -0.000540667 0
5.14897e-05 -0.000540404 0
5.39321e-05 -0.000717787 0
6.87404e-05 -0.000540667 0
7.19702e-05 -0.000717911 0
3.59329e-05 -0.000717697 0
3.66066e-05 -0.00090024 0
5.39321e-05 -0.000717787 0
5.49261e-05 -0.000900268 0
3.66066e-05 -0.00090024 0
3.67746e-05 -0.00108412 0
5.49261e-05 -0.000900268 0
5.51663e-05 -0.00108413 0
5.39321e-05 -0.000717787 0
5.49261e-05 -0.000900268 0
7.19702e-05 -0.000717911 0
7.3265e-05 -0.000900306 0
5.49261e-05 -0.000900268 0
5.51663e-05 -0.00108413 0
7.3265e-05 -0.000900306 0
7.35625e-05 -0.00108414 0
