# vtk DataFile Version 3.0
#This file was generated by the deal.II library on 2025/3/11 at 13:44:12
ASCII
DATASET UNSTRUCTURED_GRID

FIELD FieldData 1
TIME 1 1 double
5.66672
POINTS 256 double
0 0 0
0.625 0 0
0 0.0625 0
0.625 0.0625 0
0.625 0 0
1.25 0 0
0.625 0.0625 0
1.25 0.0625 0
0 0.0625 0
0.625 0.0625 0
0 0.125 0
0.625 0.125 0
0.625 0.0625 0
1.25 0.0625 0
0.625 0.125 0
1.25 0.125 0
1.25 0 0
1.875 0 0
1.25 0.0625 0
1.875 0.0625 0
1.875 0 0
2.5 0 0
1.875 0.0625 0
2.5 0.0625 0
1.25 0.0625 0
1.875 0.0625 0
1.25 0.125 0
1.875 0.125 0
1.875 0.0625 0
2.5 0.0625 0
1.875 0.125 0
2.5 0.125 0
0 0.125 0
0.625 0.125 0
0 0.1875 0
0.625 0.1875 0
0.625 0.125 0
1.25 0.125 0
0.625 0.1875 0
1.25 0.1875 0
0 0.1875 0
0.625 0.1875 0
0 0.25 0
0.625 0.25 0
0.625 0.1875 0
1.25 0.1875 0
0.625 0.25 0
1.25 0.25 0
1.25 0.125 0
1.875 0.125 0
1.25 0.1875 0
1.875 0.1875 0
1.875 0.125 0
2.5 0.125 0
1.875 0.1875 0
2.5 0.1875 0
1.25 0.1875 0
1.875 0.1875 0
1.25 0.25 0
1.875 0.25 0
1.875 0.1875 0
2.5 0.1875 0
1.875 0.25 0
2.5 0.25 0
2.5 0 0
3.125 0 0
2.5 0.0625 0
3.125 0.0625 0
3.125 0 0
3.75 0 0
3.125 0.0625 0
3.75 0.0625 0
2.5 0.0625 0
3.125 0.0625 0
2.5 0.125 0
3.125 0.125 0
3.125 0.0625 0
3.75 0.0625 0
3.125 0.125 0
3.75 0.125 0
3.75 0 0
4.375 0 0
3.75 0.0625 0
4.375 0.0625 0
4.375 0 0
5 0 0
4.375 0.0625 0
5 0.0625 0
3.75 0.0625 0
4.375 0.0625 0
3.75 0.125 0
4.375 0.125 0
4.375 0.0625 0
5 0.0625 0
4.375 0.125 0
5 0.125 0
2.5 0.125 0
3.125 0.125 0
2.5 0.1875 0
3.125 0.1875 0
3.125 0.125 0
3.75 0.125 0
3.125 0.1875 0
3.75 0.1875 0
2.5 0.1875 0
3.125 0.1875 0
2.5 0.25 0
3.125 0.25 0
3.125 0.1875 0
3.75 0.1875 0
3.125 0.25 0
3.75 0.25 0
3.75 0.125 0
4.375 0.125 0
3.75 0.1875 0
4.375 0.1875 0
4.375 0.125 0
5 0.125 0
4.375 0.1875 0
5 0.1875 0
3.75 0.1875 0
4.375 0.1875 0
3.75 0.25 0
4.375 0.25 0
4.375 0.1875 0
5 0.1875 0
4.375 0.25 0
5 0.25 0
0 0.25 0
0.625 0.25 0
0 0.3125 0
0.625 0.3125 0
0.625 0.25 0
1.25 0.25 0
0.625 0.3125 0
1.25 0.3125 0
0 0.3125 0
0.625 0.3125 0
0 0.375 0
0.625 0.375 0
0.625 0.3125 0
1.25 0.3125 0
0.625 0.375 0
1.25 0.375 0
1.25 0.25 0
1.875 0.25 0
1.25 0.3125 0
1.875 0.3125 0
1.875 0.25 0
2.5 0.25 0
1.875 0.3125 0
2.5 0.3125 0
1.25 0.3125 0
1.875 0.3125 0
1.25 0.375 0
1.875 0.375 0
1.875 0.3125 0
2.5 0.3125 0
1.875 0.375 0
2.5 0.375 0
0 0.375 0
0.625 0.375 0
0 0.4375 0
0.625 0.4375 0
0.625 0.375 0
1.25 0.375 0
0.625 0.4375 0
1.25 0.4375 0
0 0.4375 0
0.625 0.4375 0
0 0.5 0
0.625 0.5 0
0.625 0.4375 0
1.25 0.4375 0
0.625 0.5 0
1.25 0.5 0
1.25 0.375 0
1.875 0.375 0
1.25 0.4375 0
1.875 0.4375 0
1.875 0.375 0
2.5 0.375 0
1.875 0.4375 0
2.5 0.4375 0
1.25 0.4375 0
1.875 0.4375 0
1.25 0.5 0
1.875 0.5 0
1.875 0.4375 0
2.5 0.4375 0
1.875 0.5 0
2.5 0.5 0
2.5 0.25 0
3.125 0.25 0
2.5 0.3125 0
3.125 0.3125 0
3.125 0.25 0
3.75 0.25 0
3.125 0.3125 0
3.75 0.3125 0
2.5 0.3125 0
3.125 0.3125 0
2.5 0.375 0
3.125 0.375 0
3.125 0.3125 0
3.75 0.3125 0
3.125 0.375 0
3.75 0.375 0
3.75 0.25 0
4.375 0.25 0
3.75 0.3125 0
4.375 0.3125 0
4.375 0.25 0
5 0.25 0
4.375 0.3125 0
5 0.3125 0
3.75 0.3125 0
4.375 0.3125 0
3.75 0.375 0
4.375 0.375 0
4.375 0.3125 0
5 0.3125 0
4.375 0.375 0
5 0.375 0
2.5 0.375 0
3.125 0.375 0
2.5 0.4375 0
3.125 0.4375 0
3.125 0.375 0
3.75 0.375 0
3.125 0.4375 0
3.75 0.4375 0
2.5 0.4375 0
3.125 0.4375 0
2.5 0.5 0
3.125 0.5 0
3.125 0.4375 0
3.75 0.4375 0
3.125 0.5 0
3.75 0.5 0
3.75 0.375 0
4.375 0.375 0
3.75 0.4375 0
4.375 0.4375 0
4.375 0.375 0
5 0.375 0
4.375 0.4375 0
5 0.4375 0
3.75 0.4375 0
4.375 0.4375 0
3.75 0.5 0
4.375 0.5 0
4.375 0.4375 0
5 0.4375 0
4.375 0.5 0
5 0.5 0

CELLS 64 320
4	0	1	3	2
4	4	5	7	6
4	8	9	11	10
4	12	13	15	14
4	16	17	19	18
4	20	21	23	22
4	24	25	27	26
4	28	29	31	30
4	32	33	35	34
4	36	37	39	38
4	40	41	43	42
4	44	45	47	46
4	48	49	51	50
4	52	53	55	54
4	56	57	59	58
4	60	61	63	62
4	64	65	67	66
4	68	69	71	70
4	72	73	75	74
4	76	77	79	78
4	80	81	83	82
4	84	85	87	86
4	88	89	91	90
4	92	93	95	94
4	96	97	99	98
4	100	101	103	102
4	104	105	107	106
4	108	109	111	110
4	112	113	115	114
4	116	117	119	118
4	120	121	123	122
4	124	125	127	126
4	128	129	131	130
4	132	133	135	134
4	136	137	139	138
4	140	141	143	142
4	144	145	147	146
4	148	149	151	150
4	152	153	155	154
4	156	157	159	158
4	160	161	163	162
4	164	165	167	166
4	168	169	171	170
4	172	173	175	174
4	176	177	179	178
4	180	181	183	182
4	184	185	187	186
4	188	189	191	190
4	192	193	195	194
4	196	197	199	198
4	200	201	203	202
4	204	205	207	206
4	208	209	211	210
4	212	213	215	214
4	216	217	219	218
4	220	221	223	222
4	224	225	227	226
4	228	229	231	230
4	232	233	235	234
4	236	237	239	238
4	240	241	243	242
4	244	245	247	246
4	248	249	251	250
4	252	253	255	254

CELL_TYPES 64
 9 9 9 9 9 9 9 9 9 9 9 9 9 9 9 9 9 9 9 9 9 9 9 9 9 9 9 9 9 9 9 9 9 9 9 9 9 9 9 9 9 9 9 9 9 9 9 9 9 9 9 9 9 9 9 9 9 9 9 9 9 9 9 9
POINT_DATA 256
VECTORS displacement double
0 0 0
-8.11475e-06 -1.26998e-05 0
0 0 0
-5.93229e-06 -1.21104e-05 0
-8.11475e-06 -1.26998e-05 0
-1.54503e-05 -4.3243e-05 0
-5.93229e-06 -1.21104e-05 0
-1.15728e-05 -4.29035e-05 0
0 0 0
-5.93229e-06 -1.21104e-05 0
0 0 0
-3.88891e-06 -1.16934e-05 0
-5.93229e-06 -1.21104e-05 0
-1.15728e-05 -4.29035e-05 0
-3.88891e-06 -1.16934e-05 0
-7.7018e-06 -4.26545e-05 0
-1.54503e-05 -4.3243e-05 0
-2.05995e-05 -8.93896e-05 0
-1.15728e-05 -4.29035e-05 0
-1.54024e-05 -8.9138e-05 0
-2.05995e-05 -8.93896e-05 0
-2.40595e-05 -0.000146079 0
-1.54024e-05 -8.9138e-05 0
-1.80146e-05 -0.00014592 0
-1.15728e-05 -4.29035e-05 0
-1.54024e-05 -8.9138e-05 0
-7.7018e-06 -4.26545e-05 0
-1.02492e-05 -8.89608e-05 0
-1.54024e-05 -8.9138e-05 0
-1.80146e-05 -0.00014592 0
-1.02492e-05 -8.89608e-05 0
-1.19941e-05 -0.000145805 0
0 0 0
-3.88891e-06 -1.16934e-05 0
0 0 0
-1.92596e-06 -1.14448e-05 0
-3.88891e-06 -1.16934e-05 0
-7.7018e-06 -4.26545e-05 0
-1.92596e-06 -1.14448e-05 0
-3.8458e-06 -4.25027e-05 0
0 0 0
-1.92596e-06 -1.14448e-05 0
0 0 0
-5.16548e-19 -1.13623e-05 0
-1.92596e-06 -1.14448e-05 0
-3.8458e-06 -4.25027e-05 0
-5.16548e-19 -1.13623e-05 0
-1.22187e-18 -4.24517e-05 0
-7.7018e-06 -4.26545e-05 0
-1.02492e-05 -8.89608e-05 0
-3.8458e-06 -4.25027e-05 0
-5.11935e-06 -8.88553e-05 0
-1.02492e-05 -8.89608e-05 0
-1.19941e-05 -0.000145805 0
-5.11935e-06 -8.88553e-05 0
-5.99219e-06 -0.000145736 0
-3.8458e-06 -4.25027e-05 0
-5.11935e-06 -8.88553e-05 0
-1.22187e-18 -4.24517e-05 0
-1.81027e-18 -8.88202e-05 0
-5.11935e-06 -8.88553e-05 0
-5.99219e-06 -0.000145736 0
-1.81027e-18 -8.88202e-05 0
-2.41909e-18 -0.000145712 0
-2.40595e-05 -0.000146079 0
-2.61726e-05 -0.000209543 0
-1.80146e-05 -0.00014592 0
-1.96057e-05 -0.000209452 0
-2.61726e-05 -0.000209543 0
-2.72747e-05 -0.000276832 0
-1.96057e-05 -0.000209452 0
-2.04403e-05 -0.000276791 0
-1.80146e-05 -0.00014592 0
-1.96057e-05 -0.000209452 0
-1.19941e-05 -0.000145805 0
-1.30596e-05 -0.000209387 0
-1.96057e-05 -0.000209452 0
-2.04403e-05 -0.000276791 0
-1.30596e-05 -0.000209387 0
-1.36193e-05 -0.00027676 0
-2.72747e-05 -0.000276832 0
-2.77039e-05 -0.000345843 0
-2.04403e-05 -0.000276791 0
-2.07704e-05 -0.00034583 0
-2.77039e-05 -0.000345843 0
-2.77998e-05 -0.000415318 0
-2.07704e-05 -0.00034583 0
-2.08481e-05 -0.000415315 0
-2.04403e-05 -0.000276791 0
-2.07704e-05 -0.00034583 0
-1.36193e-05 -0.00027676 0
-1.38434e-05 -0.000345821 0
-2.07704e-05 -0.00034583 0
-2.08481e-05 -0.000415315 0
-1.38434e-05 -0.000345821 0
-1.38978e-05 -0.000415313 0
-1.19941e-05 -0.000145805 0
-1.30596e-05 -0.000209387 0
-5.99219e-06 -0.000145736 0
-6.52655e-06 -0.000209348 0
-1.30596e-05 -0.000209387 0
-1.36193e-05 -0.00027676 0
-6.52655e-06 -0.000209348 0
-6.80736e-06 -0.000276742 0
-5.99219e-06 -0.000145736 0
-6.52655e-06 -0.000209348 0
-2.41909e-18 -0.000145712 0
-2.97964e-18 -0.000209334 0
-6.52655e-06 -0.000209348 0
-6.80736e-06 -0.000276742 0
-2.97964e-18 -0.000209334 0
-3.34545e-18 -0.000276736 0
-1.36193e-05 -0.00027676 0
-1.38434e-05 -0.000345821 0
-6.80736e-06 -0.000276742 0
-6.92062e-06 -0.000345815 0
-1.38434e-05 -0.000345821 0
-1.38978e-05 -0.000415313 0
-6.92062e-06 -0.000345815 0
-6.9486e-06 -0.000415312 0
-6.80736e-06 -0.000276742 0
-6.92062e-06 -0.000345815 0
-3.34545e-18 -0.000276736 0
-2.92184e-18 -0.000345814 0
-6.92062e-06 -0.000345815 0
-6.9486e-06 -0.000415312 0
-2.92184e-18 -0.000345814 0
-2.96518e-18 -0.000415311 0
0 0 0
-5.16548e-19 -1.13623e-05 0
0 0 0
1.92596e-06 -1.14448e-05 0
-5.16548e-19 -1.13623e-05 0
-1.22187e-18 -4.24517e-05 0
1.92596e-06 -1.14448e-05 0
3.8458e-06 -4.25027e-05 0
0 0 0
1.92596e-06 -1.14448e-05 0
0 0 0
3.88891e-06 -1.16934e-05 0
1.92596e-06 -1.14448e-05 0
3.8458e-06 -4.25027e-05 0
3.88891e-06 -1.16934e-05 0
7.7018e-06 -4.26545e-05 0
-1.22187e-18 -4.24517e-05 0
-1.81027e-18 -8.88202e-05 0
3.8458e-06 -4.25027e-05 0
5.11935e-06 -8.88553e-05 0
-1.81027e-18 -8.88202e-05 0
-2.41909e-18 -0.000145712 0
5.11935e-06 -8.88553e-05 0
5.99219e-06 -0.000145736 0
3.8458e-06 -4.25027e-05 0
5.11935e-06 -8.88553e-05 0
7.7018e-06 -4.26545e-05 0
1.02492e-05 -8.89608e-05 0
5.11935e-06 -8.88553e-05 0
5.99219e-06 -0.000145736 0
1.02492e-05 -8.89608e-05 0
1.19941e-05 -0.000145805 0
0 0 0
3.88891e-06 -1.16934e-05 0
0 0 0
5.93229e-06 -1.21104e-05 0
3.88891e-06 -1.16934e-05 0
7.7018e-06 -4.26545e-05 0
5.93229e-06 -1.21104e-05 0
1.15728e-05 -4.29035e-05 0
0 0 0
5.93229e-06 -1.21104e-05 0
0 0 0
8.11475e-06 -1.26998e-05 0
5.93229e-06 -1.21104e-05 0
1.15728e-05 -4.29035e-05 0
8.11475e-06 -1.26998e-05 0
1.54503e-05 -4.3243e-05 0
7.7018e-06 -4.26545e-05 0
1.02492e-05 -8.89608e-05 0
1.15728e-05 -4.29035e-05 0
1.54024e-05 -8.9138e-05 0
1.02492e-05 -8.89608e-05 0
1.19941e-05 -0.000145805 0
1.54024e-05 -8.9138e-05 0
1.80146e-05 -0.00014592 0
1.15728e-05 -4.29035e-05 0
1.54024e-05 -8.9138e-05 0
1.54503e-05 -4.3243e-05 0
2.05995e-05 -8.93896e-05 0
1.54024e-05 -8.9138e-05 0
1.80146e-05 -0.00014592 0
2.05995e-05 -8.93896e-05 0
2.40595e-05 -0.000146079 0
-2.41909e-18 -0.000145712 0
-2.97964e-18 -0.000209334 0
5.99219e-06 -0.000145736 0
6.52655e-06 -0.000209348 0
-2.97964e-18 -0.000209334 0
-3.34545e-18 -0.000276736 0
6.52655e-06 -0.000209348 0
6.80736e-06 -0.000276742 0
5.99219e-06 -0.000145736 0
6.52655e-06 -0.000209348 0
1.19941e-05 -0.000145805 0
1.30596e-05 -0.000209387 0
6.52655e-06 -0.000209348 0
6.80736e-06 -0.000276742 0
1.30596e-05 -0.000209387 0
1.36193e-05 -0.00027676 0
-3.34545e-18 -0.000276736 0
-2.92184e-18 -0.000345814 0
6.80736e-06 -0.000276742 0
6.92062e-06 -0.000345815 0
-2.92184e-18 -0.000345814 0
-2.96518e-18 -0.000415311 0
6.92062e-06 -0.000345815 0
6.9486e-06 -0.000415312 0
6.80736e-06 -0.000276742 0
6.92062e-06 -0.000345815 0
1.36193e-05 -0.00027676 0
1.38434e-05 -0.000345821 0
6.92062e-06 -0.000345815 0
6.9486e-06 -0.000415312 0
1.38434e-05 -0.000345821 0
1.38978e-05 -0.000415313 0
1.19941e-05 -0.000145805 0
1.30596e-05 -0.000209387 0
1.80146e-05 -0.00014592 0
1.96057e-05 -0.000209452 0
1.30596e-05 -0.000209387 0
1.36193e-05 -0.00027676 0
1.96057e-05 -0.000209452 0
2.04403e-05 -0.000276791 0
1.80146e-05 -0.00014592 0
1.96057e-05 -0.000209452 0
2.40595e-05 -0.000146079 0
2.61726e-05 -0.000209543 0
1.96057e-05 -0.000209452 0
2.04403e-05 -0.000276791 0
2.61726e-05 -0.000209543 0
2.72747e-05 -0.000276832 0
1.36193e-05 -0.00027676 0
1.38434e-05 -0.000345821 0
2.04403e-05 -0.000276791 0
2.07704e-05 -0.00034583 0
1.38434e-05 -0.000345821 0
1.38978e-05 -0.000415313 0
2.07704e-05 -0.00034583 0
2.08481e-05 -0.000415315 0
2.04403e-05 -0.000276791 0
2.07704e-05 -0.00034583 0
2.72747e-05 -0.000276832 0
2.77039e-05 -0.000345843 0
2.07704e-05 -0.00034583 0
2.08481e-05 -0.000415315 0
2.77039e-05 -0.000345843 0
2.77998e-05 -0.000415318 0
VECTORS velocity double
0 0 0
6.6808e-07 1.68497e-06 0
0 0 0
4.59381e-07 1.65417e-06 0
6.6808e-07 1.68497e-06 0
5.35852e-07 3.60284e-06 0
4.59381e-07 1.65417e-06 0
3.94402e-07 3.63369e-06 0
0 0 0
4.59381e-07 1.65417e-06 0
0 0 0
2.88206e-07 1.6332e-06 0
4.59381e-07 1.65417e-06 0
3.94402e-07 3.63369e-06 0
2.88206e-07 1.6332e-06 0
2.58005e-07 3.6538e-06 0
5.35852e-07 3.60284e-06 0
-1.68542e-07 4.26697e-06 0
3.94402e-07 3.63369e-06 0
-1.3169e-07 4.31598e-06 0
-1.68542e-07 4.26697e-06 0
-1.06481e-06 2.74128e-06 0
-1.3169e-07 4.31598e-06 0
-7.96053e-07 2.79312e-06 0
3.94402e-07 3.63369e-06 0
-1.3169e-07 4.31598e-06 0
2.58005e-07 3.6538e-06 0
-8.96688e-08 4.35109e-06 0
-1.3169e-07 4.31598e-06 0
-7.96053e-07 2.79312e-06 0
-8.96688e-08 4.35109e-06 0
-5.29746e-07 2.82963e-06 0
0 0 0
2.88206e-07 1.6332e-06 0
0 0 0
1.3901e-07 1.62104e-06 0
2.88206e-07 1.6332e-06 0
2.58005e-07 3.6538e-06 0
1.3901e-07 1.62104e-06 0
1.27295e-07 3.66514e-06 0
0 0 0
1.3901e-07 1.62104e-06 0
0 0 0
8.0589e-19 1.61707e-06 0
1.3901e-07 1.62104e-06 0
1.27295e-07 3.66514e-06 0
8.0589e-19 1.61707e-06 0
5.54324e-18 3.6688e-06 0
2.58005e-07 3.6538e-06 0
-8.96688e-08 4.35109e-06 0
1.27295e-07 3.66514e-06 0
-4.53018e-08 4.37213e-06 0
-8.96688e-08 4.35109e-06 0
-5.29746e-07 2.82963e-06 0
-4.53018e-08 4.37213e-06 0
-2.64619e-07 2.85138e-06 0
1.27295e-07 3.66514e-06 0
-4.53018e-08 4.37213e-06 0
5.54324e-18 3.6688e-06 0
8.49329e-18 4.37914e-06 0
-4.53018e-08 4.37213e-06 0
-2.64619e-07 2.85138e-06 0
8.49329e-18 4.37914e-06 0
8.82613e-18 2.8586e-06 0
-1.06481e-06 2.74128e-06 0
-1.87635e-06 -1.04654e-06 0
-7.96053e-07 2.79312e-06 0
-1.40107e-06 -1.00556e-06 0
-1.87635e-06 -1.04654e-06 0
-2.43951e-06 -6.61278e-06 0
-1.40107e-06 -1.00556e-06 0
-1.82236e-06 -6.58859e-06 0
-7.96053e-07 2.79312e-06 0
-1.40107e-06 -1.00556e-06 0
-5.29746e-07 2.82963e-06 0
-9.31024e-07 -9.76399e-07 0
-1.40107e-06 -1.00556e-06 0
-1.82236e-06 -6.58859e-06 0
-9.31024e-07 -9.76399e-07 0
-1.2115e-06 -6.57126e-06 0
-2.43951e-06 -6.61278e-06 0
-2.71217e-06 -1.3211e-05 0
-1.82236e-06 -6.58859e-06 0
-2.02927e-06 -1.32023e-05 0
-2.71217e-06 -1.3211e-05 0
-2.78486e-06 -2.01528e-05 0
-2.02927e-06 -1.32023e-05 0
-2.08711e-06 -2.01506e-05 0
-1.82236e-06 -6.58859e-06 0
-2.02927e-06 -1.32023e-05 0
-1.2115e-06 -6.57126e-06 0
-1.35053e-06 -1.31959e-05 0
-2.02927e-06 -1.32023e-05 0
-2.08711e-06 -2.01506e-05 0
-1.35053e-06 -1.31959e-05 0
-1.39062e-06 -2.01486e-05 0
-5.29746e-07 2.82963e-06 0
-9.31024e-07 -9.76399e-07 0
-2.64619e-07 2.85138e-06 0
-4.646e-07 -9.58965e-07 0
-9.31024e-07 -9.76399e-07 0
-1.2115e-06 -6.57126e-06 0
-4.646e-07 -9.58965e-07 0
-6.04737e-07 -6.56084e-06 0
-2.64619e-07 2.85138e-06 0
-4.646e-07 -9.58965e-07 0
8.82613e-18 2.8586e-06 0
-6.92485e-18 -9.53165e-07 0
-4.646e-07 -9.58965e-07 0
-6.04737e-07 -6.56084e-06 0
-6.92485e-18 -9.53165e-07 0
-2.28142e-17 -6.55736e-06 0
-1.2115e-06 -6.57126e-06 0
-1.35053e-06 -1.31959e-05 0
-6.04737e-07 -6.56084e-06 0
-6.74567e-07 -1.3192e-05 0
-1.35053e-06 -1.31959e-05 0
-1.39062e-06 -2.01486e-05 0
-6.74567e-07 -1.3192e-05 0
-6.95061e-07 -2.01474e-05 0
-6.04737e-07 -6.56084e-06 0
-6.74567e-07 -1.3192e-05 0
-2.28142e-17 -6.55736e-06 0
3.65091e-18 -1.31907e-05 0
-6.74567e-07 -1.3192e-05 0
-6.95061e-07 -2.01474e-05 0
3.65091e-18 -1.31907e-05 0
3.19597e-17 -2.0147e-05 0
0 0 0
8.0589e-19 1.61707e-06 0
0 0 0
-1.3901e-07 1.62104e-06 0
8.0589e-19 1.61707e-06 0
5.54324e-18 3.6688e-06 0
-1.3901e-07 1.62104e-06 0
-1.27295e-07 3.66514e-06 0
0 0 0
-1.3901e-07 1.62104e-06 0
0 0 0
-2.88206e-07 1.6332e-06 0
-1.3901e-07 1.62104e-06 0
-1.27295e-07 3.66514e-06 0
-2.88206e-07 1.6332e-06 0
-2.58005e-07 3.6538e-06 0
5.54324e-18 3.6688e-06 0
8.49329e-18 4.37914e-06 0
-1.27295e-07 3.66514e-06 0
4.53018e-08 4.37213e-06 0
8.49329e-18 4.37914e-06 0
8.82613e-18 2.8586e-06 0
4.53018e-08 4.37213e-06 0
2.64619e-07 2.85138e-06 0
-1.27295e-07 3.66514e-06 0
4.53018e-08 4.37213e-06 0
-2.58005e-07 3.6538e-06 0
8.96688e-08 4.35109e-06 0
4.53018e-08 4.37213e-06 0
2.64619e-07 2.85138e-06 0
8.96688e-08 4.35109e-06 0
5.29746e-07 2.82963e-06 0
0 0 0
-2.88206e-07 1.6332e-06 0
0 0 0
-4.59381e-07 1.65417e-06 0
-2.88206e-07 1.6332e-06 0
-2.58005e-07 3.6538e-06 0
-4.59381e-07 1.65417e-06 0
-3.94402e-07 3.63369e-06 0
0 0 0
-4.59381e-07 1.65417e-06 0
0 0 0
-6.6808e-07 1.68497e-06 0
-4.59381e-07 1.65417e-06 0
-3.94402e-07 3.63369e-06 0
-6.6808e-07 1.68497e-06 0
-5.35852e-07 3.60284e-06 0
-2.58005e-07 3.6538e-06 0
8.96688e-08 4.35109e-06 0
-3.94402e-07 3.63369e-06 0
1.3169e-07 4.31598e-06 0
8.96688e-08 4.35109e-06 0
5.29746e-07 2.82963e-06 0
1.3169e-07 4.31598e-06 0
7.96053e-07 2.79312e-06 0
-3.94402e-07 3.63369e-06 0
1.3169e-07 4.31598e-06 0
-5.35852e-07 3.60284e-06 0
1.68542e-07 4.26697e-06 0
1.3169e-07 4.31598e-06 0
7.96053e-07 2.79312e-06 0
1.68542e-07 4.26697e-06 0
1.06481e-06 2.74128e-06 0
8.82613e-18 2.8586e-06 0
-6.92485e-18 -9.53165e-07 0
2.64619e-07 2.85138e-06 0
4.646e-07 -9.58965e-07 0
-6.92485e-18 -9.53165e-07 0
-2.28142e-17 -6.55736e-06 0
4.646e-07 -9.58965e-07 0
6.04737e-07 -6.56084e-06 0
2.64619e-07 2.85138e-06 0
4.646e-07 -9.58965e-07 0
5.29746e-07 2.82963e-06 0
9.31024e-07 -9.76399e-07 0
4.646e-07 -9.58965e-07 0
6.04737e-07 -6.56084e-06 0
9.31024e-07 -9.76399e-07 0
1.2115e-06 -6.57126e-06 0
-2.28142e-17 -6.55736e-06 0
3.65091e-18 -1.31907e-05 0
6.04737e-07 -6.56084e-06 0
6.74567e-07 -1.3192e-05 0
3.65091e-18 -1.31907e-05 0
3.19597e-17 -2.0147e-05 0
6.74567e-07 -1.3192e-05 0
6.95061e-07 -2.01474e-05 0
6.04737e-07 -6.56084e-06 0
6.74567e-07 -1.3192e-05 0
1.2115e-06 -6.57126e-06 0
1.35053e-06 -1.31959e-05 0
6.74567e-07 -1.3192e-05 0
6.95061e-07 -2.01474e-05 0
1.35053e-06 -1.31959e-05 0
1.39062e-06 -2.01486e-05 0
5.29746e-07 2.82963e-06 0
9.31024e-07 -9.76399e-07 0
7.96053e-07 2.79312e-06 0
1.40107e-06 -1.00556e-06 0
9.31024e-07 -9.76399e-07 0
1.2115e-06 -6.57126e-06 0
1.40107e-06 -1.00556e-06 0
1.82236e-06 -6.58859e-06 0
7.96053e-07 2.79312e-06 0
1.40107e-06 -1.00556e-06 0
1.06481e-06 2.74128e-06 0
1.87635e-06 -1.04654e-06 0
1.40107e-06 -1.00556e-06 0
1.82236e-06 -6.58859e-06 0
1.87635e-06 -1.04654e-06 0
2.43951e-06 -6.61278e-06 0
1.2115e-06 -6.57126e-06 0
1.35053e-06 -1.31959e-05 0
1.82236e-06 -6.58859e-06 0
2.02927e-06 -1.32023e-05 0
1.35053e-06 -1.31959e-05 0
1.39062e-06 -2.01486e-05 0
2.02927e-06 -1.32023e-05 0
2.08711e-06 -2.01506e-05 0
1.82236e-06 -6.58859e-06 0
2.02927e-06 -1.32023e-05 0
2.43951e-06 -6.61278e-06 0
2.71217e-06 -1.3211e-05 0
2.02927e-06 -1.32023e-05 0
2.08711e-06 -2.01506e-05 0
2.71217e-06 -1.3211e-05 0
2.78486e-06 -2.01528e-05 0
