# vtk DataFile Version 3.0
#This file was generated by the deal.II library on 2025/4/1 at 13:01:37
ASCII
DATASET UNSTRUCTURED_GRID

FIELD FieldData 1
TIME 1 1 double
0.994152
POINTS 256 double
0 0 0
0.0078125 0 0
0.0078125 0 0
0.015625 0 0
0.015625 0 0
0.0234375 0 0
0.0234375 0 0
0.03125 0 0
0.03125 0 0
0.0390625 0 0
0.0390625 0 0
0.046875 0 0
0.046875 0 0
0.0546875 0 0
0.0546875 0 0
0.0625 0 0
0.0625 0 0
0.0703125 0 0
0.0703125 0 0
0.078125 0 0
0.078125 0 0
0.0859375 0 0
0.0859375 0 0
0.09375 0 0
0.09375 0 0
0.101562 0 0
0.101562 0 0
0.109375 0 0
0.109375 0 0
0.117188 0 0
0.117188 0 0
0.125 0 0
0.125 0 0
0.132812 0 0
0.132812 0 0
0.140625 0 0
0.140625 0 0
0.148438 0 0
0.148438 0 0
0.15625 0 0
0.15625 0 0
0.164062 0 0
0.164062 0 0
0.171875 0 0
0.171875 0 0
0.179688 0 0
0.179688 0 0
0.1875 0 0
0.1875 0 0
0.195312 0 0
0.195312 0 0
0.203125 0 0
0.203125 0 0
0.210938 0 0
0.210938 0 0
0.21875 0 0
0.21875 0 0
0.226562 0 0
0.226562 0 0
0.234375 0 0
0.234375 0 0
0.242188 0 0
0.242188 0 0
0.25 0 0
0.25 0 0
0.257812 0 0
0.257812 0 0
0.265625 0 0
0.265625 0 0
0.273438 0 0
0.273438 0 0
0.28125 0 0
0.28125 0 0
0.289062 0 0
0.289062 0 0
0.296875 0 0
0.296875 0 0
0.304688 0 0
0.304688 0 0
0.3125 0 0
0.3125 0 0
0.320312 0 0
0.320312 0 0
0.328125 0 0
0.328125 0 0
0.335938 0 0
0.335938 0 0
0.34375 0 0
0.34375 0 0
0.351562 0 0
0.351562 0 0
0.359375 0 0
0.359375 0 0
0.367188 0 0
0.367188 0 0
0.375 0 0
0.375 0 0
0.382812 0 0
0.382812 0 0
0.390625 0 0
0.390625 0 0
0.398438 0 0
0.398438 0 0
0.40625 0 0
0.40625 0 0
0.414062 0 0
0.414062 0 0
0.421875 0 0
0.421875 0 0
0.429688 0 0
0.429688 0 0
0.4375 0 0
0.4375 0 0
0.445312 0 0
0.445312 0 0
0.453125 0 0
0.453125 0 0
0.460938 0 0
0.460938 0 0
0.46875 0 0
0.46875 0 0
0.476562 0 0
0.476562 0 0
0.484375 0 0
0.484375 0 0
0.492188 0 0
0.492188 0 0
0.5 0 0
0.5 0 0
0.507812 0 0
0.507812 0 0
0.515625 0 0
0.515625 0 0
0.523438 0 0
0.523438 0 0
0.53125 0 0
0.53125 0 0
0.539062 0 0
0.539062 0 0
0.546875 0 0
0.546875 0 0
0.554688 0 0
0.554688 0 0
0.5625 0 0
0.5625 0 0
0.570312 0 0
0.570312 0 0
0.578125 0 0
0.578125 0 0
0.585938 0 0
0.585938 0 0
0.59375 0 0
0.59375 0 0
0.601562 0 0
0.601562 0 0
0.609375 0 0
0.609375 0 0
0.617188 0 0
0.617188 0 0
0.625 0 0
0.625 0 0
0.632812 0 0
0.632812 0 0
0.640625 0 0
0.640625 0 0
0.648438 0 0
0.648438 0 0
0.65625 0 0
0.65625 0 0
0.664062 0 0
0.664062 0 0
0.671875 0 0
0.671875 0 0
0.679688 0 0
0.679688 0 0
0.6875 0 0
0.6875 0 0
0.695312 0 0
0.695312 0 0
0.703125 0 0
0.703125 0 0
0.710938 0 0
0.710938 0 0
0.71875 0 0
0.71875 0 0
0.726562 0 0
0.726562 0 0
0.734375 0 0
0.734375 0 0
0.742188 0 0
0.742188 0 0
0.75 0 0
0.75 0 0
0.757812 0 0
0.757812 0 0
0.765625 0 0
0.765625 0 0
0.773438 0 0
0.773438 0 0
0.78125 0 0
0.78125 0 0
0.789062 0 0
0.789062 0 0
0.796875 0 0
0.796875 0 0
0.804688 0 0
0.804688 0 0
0.8125 0 0
0.8125 0 0
0.820312 0 0
0.820312 0 0
0.828125 0 0
0.828125 0 0
0.835938 0 0
0.835938 0 0
0.84375 0 0
0.84375 0 0
0.851562 0 0
0.851562 0 0
0.859375 0 0
0.859375 0 0
0.867188 0 0
0.867188 0 0
0.875 0 0
0.875 0 0
0.882812 0 0
0.882812 0 0
0.890625 0 0
0.890625 0 0
0.898438 0 0
0.898438 0 0
0.90625 0 0
0.90625 0 0
0.914062 0 0
0.914062 0 0
0.921875 0 0
0.921875 0 0
0.929688 0 0
0.929688 0 0
0.9375 0 0
0.9375 0 0
0.945312 0 0
0.945312 0 0
0.953125 0 0
0.953125 0 0
0.960938 0 0
0.960938 0 0
0.96875 0 0
0.96875 0 0
0.976562 0 0
0.976562 0 0
0.984375 0 0
0.984375 0 0
0.992188 0 0
0.992188 0 0
1 0 0

CELLS 128 384
2	0	1
2	2	3
2	4	5
2	6	7
2	8	9
2	10	11
2	12	13
2	14	15
2	16	17
2	18	19
2	20	21
2	22	23
2	24	25
2	26	27
2	28	29
2	30	31
2	32	33
2	34	35
2	36	37
2	38	39
2	40	41
2	42	43
2	44	45
2	46	47
2	48	49
2	50	51
2	52	53
2	54	55
2	56	57
2	58	59
2	60	61
2	62	63
2	64	65
2	66	67
2	68	69
2	70	71
2	72	73
2	74	75
2	76	77
2	78	79
2	80	81
2	82	83
2	84	85
2	86	87
2	88	89
2	90	91
2	92	93
2	94	95
2	96	97
2	98	99
2	100	101
2	102	103
2	104	105
2	106	107
2	108	109
2	110	111
2	112	113
2	114	115
2	116	117
2	118	119
2	120	121
2	122	123
2	124	125
2	126	127
2	128	129
2	130	131
2	132	133
2	134	135
2	136	137
2	138	139
2	140	141
2	142	143
2	144	145
2	146	147
2	148	149
2	150	151
2	152	153
2	154	155
2	156	157
2	158	159
2	160	161
2	162	163
2	164	165
2	166	167
2	168	169
2	170	171
2	172	173
2	174	175
2	176	177
2	178	179
2	180	181
2	182	183
2	184	185
2	186	187
2	188	189
2	190	191
2	192	193
2	194	195
2	196	197
2	198	199
2	200	201
2	202	203
2	204	205
2	206	207
2	208	209
2	210	211
2	212	213
2	214	215
2	216	217
2	218	219
2	220	221
2	222	223
2	224	225
2	226	227
2	228	229
2	230	231
2	232	233
2	234	235
2	236	237
2	238	239
2	240	241
2	242	243
2	244	245
2	246	247
2	248	249
2	250	251
2	252	253
2	254	255

CELL_TYPES 128
 3 3 3 3 3 3 3 3 3 3 3 3 3 3 3 3 3 3 3 3 3 3 3 3 3 3 3 3 3 3 3 3 3 3 3 3 3 3 3 3 3 3 3 3 3 3 3 3 3 3 3 3 3 3 3 3 3 3 3 3 3 3 3 3 3 3 3 3 3 3 3 3 3 3 3 3 3 3 3 3 3 3 3 3 3 3 3 3 3 3 3 3 3 3 3 3 3 3 3 3 3 3 3 3 3 3 3 3 3 3 3 3 3 3 3 3 3 3 3 3 3 3 3 3 3 3 3 3
POINT_DATA 256
VECTORS displacement double
0 0 0
0.00646331 0 0
0.00646331 0 0
0.0128243 0 0
0.0128243 0 0
0.0190831 0 0
0.0190831 0 0
0.0252396 0 0
0.0252396 0 0
0.031294 0 0
0.031294 0 0
0.0372463 0 0
0.0372463 0 0
0.0430964 0 0
0.0430964 0 0
0.0488445 0 0
0.0488445 0 0
0.0544905 0 0
0.0544905 0 0
0.0600345 0 0
0.0600345 0 0
0.0654765 0 0
0.0654765 0 0
0.0708166 0 0
0.0708166 0 0
0.0760548 0 0
0.0760548 0 0
0.081191 0 0
0.081191 0 0
0.0862254 0 0
0.0862254 0 0
0.0911579 0 0
0.0911579 0 0
0.0959886 0 0
0.0959886 0 0
0.100717 0 0
0.100717 0 0
0.105344 0 0
0.105344 0 0
0.10987 0 0
0.10987 0 0
0.114293 0 0
0.114293 0 0
0.118615 0 0
0.118615 0 0
0.122835 0 0
0.122835 0 0
0.126953 0 0
0.126953 0 0
0.130969 0 0
0.130969 0 0
0.134884 0 0
0.134884 0 0
0.138697 0 0
0.138697 0 0
0.142408 0 0
0.142408 0 0
0.146017 0 0
0.146017 0 0
0.149525 0 0
0.149525 0 0
0.152931 0 0
0.152931 0 0
0.156236 0 0
0.156236 0 0
0.159438 0 0
0.159438 0 0
0.162539 0 0
0.162539 0 0
0.165538 0 0
0.165538 0 0
0.168436 0 0
0.168436 0 0
0.171232 0 0
0.171232 0 0
0.173926 0 0
0.173926 0 0
0.176518 0 0
0.176518 0 0
0.179009 0 0
0.179009 0 0
0.181398 0 0
0.181398 0 0
0.183685 0 0
0.183685 0 0
0.185871 0 0
0.185871 0 0
0.187955 0 0
0.187955 0 0
0.189937 0 0
0.189937 0 0
0.191818 0 0
0.191818 0 0
0.193597 0 0
0.193597 0 0
0.195274 0 0
0.195274 0 0
0.19685 0 0
0.19685 0 0
0.198324 0 0
0.198324 0 0
0.199697 0 0
0.199697 0 0
0.200967 0 0
0.200967 0 0
0.202136 0 0
0.202136 0 0
0.203204 0 0
0.203204 0 0
0.204169 0 0
0.204169 0 0
0.205033 0 0
0.205033 0 0
0.205796 0 0
0.205796 0 0
0.206457 0 0
0.206457 0 0
0.207016 0 0
0.207016 0 0
0.207473 0 0
0.207473 0 0
0.207829 0 0
0.207829 0 0
0.208083 0 0
0.208083 0 0
0.208236 0 0
0.208236 0 0
0.208286 0 0
0.208286 0 0
0.208236 0 0
0.208236 0 0
0.208083 0 0
0.208083 0 0
0.207829 0 0
0.207829 0 0
0.207473 0 0
0.207473 0 0
0.207016 0 0
0.207016 0 0
0.206457 0 0
0.206457 0 0
0.205796 0 0
0.205796 0 0
0.205033 0 0
0.205033 0 0
0.204169 0 0
0.204169 0 0
0.203204 0 0
0.203204 0 0
0.202136 0 0
0.202136 0 0
0.200967 0 0
0.200967 0 0
0.199697 0 0
0.199697 0 0
0.198324 0 0
0.198324 0 0
0.19685 0 0
0.19685 0 0
0.195274 0 0
0.195274 0 0
0.193597 0 0
0.193597 0 0
0.191818 0 0
0.191818 0 0
0.189937 0 0
0.189937 0 0
0.187955 0 0
0.187955 0 0
0.185871 0 0
0.185871 0 0
0.183685 0 0
0.183685 0 0
0.181398 0 0
0.181398 0 0
0.179009 0 0
0.179009 0 0
0.176518 0 0
0.176518 0 0
0.173926 0 0
0.173926 0 0
0.171232 0 0
0.171232 0 0
0.168436 0 0
0.168436 0 0
0.165538 0 0
0.165538 0 0
0.162539 0 0
0.162539 0 0
0.159438 0 0
0.159438 0 0
0.156236 0 0
0.156236 0 0
0.152931 0 0
0.152931 0 0
0.149525 0 0
0.149525 0 0
0.146017 0 0
0.146017 0 0
0.142408 0 0
0.142408 0 0
0.138697 0 0
0.138697 0 0
0.134884 0 0
0.134884 0 0
0.130969 0 0
0.130969 0 0
0.126953 0 0
0.126953 0 0
0.122835 0 0
0.122835 0 0
0.118615 0 0
0.118615 0 0
0.114293 0 0
0.114293 0 0
0.10987 0 0
0.10987 0 0
0.105344 0 0
0.105344 0 0
0.100717 0 0
0.100717 0 0
0.0959886 0 0
0.0959886 0 0
0.0911579 0 0
0.0911579 0 0
0.0862254 0 0
0.0862254 0 0
0.081191 0 0
0.081191 0 0
0.0760548 0 0
0.0760548 0 0
0.0708166 0 0
0.0708166 0 0
0.0654765 0 0
0.0654765 0 0
0.0600345 0 0
0.0600345 0 0
0.0544905 0 0
0.0544905 0 0
0.0488445 0 0
0.0488445 0 0
0.0430964 0 0
0.0430964 0 0
0.0372463 0 0
0.0372463 0 0
0.031294 0 0
0.031294 0 0
0.0252396 0 0
0.0252396 0 0
0.0190831 0 0
0.0190831 0 0
0.0128243 0 0
0.0128243 0 0
0.00646331 0 0
0.00646331 0 0
0 0 0
VECTORS velocity double
0 0 0
0.00425336 0 0
0.00425336 0 0
0.00843981 0 0
0.00843981 0 0
0.0125594 0 0
0.0125594 0 0
0.0166121 0 0
0.0166121 0 0
0.020598 0 0
0.020598 0 0
0.024517 0 0
0.024517 0 0
0.0283693 0 0
0.0283693 0 0
0.0321548 0 0
0.0321548 0 0
0.0358736 0 0
0.0358736 0 0
0.0395256 0 0
0.0395256 0 0
0.0431108 0 0
0.0431108 0 0
0.0466292 0 0
0.0466292 0 0
0.0500809 0 0
0.0500809 0 0
0.0534657 0 0
0.0534657 0 0
0.0567836 0 0
0.0567836 0 0
0.0600347 0 0
0.0600347 0 0
0.063219 0 0
0.063219 0 0
0.0663363 0 0
0.0663363 0 0
0.0693866 0 0
0.0693866 0 0
0.0723701 0 0
0.0723701 0 0
0.0752865 0 0
0.0752865 0 0
0.078136 0 0
0.078136 0 0
0.0809184 0 0
0.0809184 0 0
0.0836339 0 0
0.0836339 0 0
0.0862823 0 0
0.0862823 0 0
0.0888637 0 0
0.0888637 0 0
0.091378 0 0
0.091378 0 0
0.0938253 0 0
0.0938253 0 0
0.0962055 0 0
0.0962055 0 0
0.0985187 0 0
0.0985187 0 0
0.100765 0 0
0.100765 0 0
0.102944 0 0
0.102944 0 0
0.105056 0 0
0.105056 0 0
0.107101 0 0
0.107101 0 0
0.109079 0 0
0.109079 0 0
0.11099 0 0
0.11099 0 0
0.112834 0 0
0.112834 0 0
0.114611 0 0
0.114611 0 0
0.11632 0 0
0.11632 0 0
0.117963 0 0
0.117963 0 0
0.119539 0 0
0.119539 0 0
0.121047 0 0
0.121047 0 0
0.122489 0 0
0.122489 0 0
0.123863 0 0
0.123863 0 0
0.125171 0 0
0.125171 0 0
0.126411 0 0
0.126411 0 0
0.127585 0 0
0.127585 0 0
0.128691 0 0
0.128691 0 0
0.12973 0 0
0.12973 0 0
0.130703 0 0
0.130703 0 0
0.131608 0 0
0.131608 0 0
0.132446 0 0
0.132446 0 0
0.133217 0 0
0.133217 0 0
0.133921 0 0
0.133921 0 0
0.134558 0 0
0.134558 0 0
0.135128 0 0
0.135128 0 0
0.135631 0 0
0.135631 0 0
0.136067 0 0
0.136067 0 0
0.136436 0 0
0.136436 0 0
0.136737 0 0
0.136737 0 0
0.136972 0 0
0.136972 0 0
0.13714 0 0
0.13714 0 0
0.13724 0 0
0.13724 0 0
0.137274 0 0
0.137274 0 0
0.13724 0 0
0.13724 0 0
0.13714 0 0
0.13714 0 0
0.136972 0 0
0.136972 0 0
0.136737 0 0
0.136737 0 0
0.136436 0 0
0.136436 0 0
0.136067 0 0
0.136067 0 0
0.135631 0 0
0.135631 0 0
0.135128 0 0
0.135128 0 0
0.134558 0 0
0.134558 0 0
0.133921 0 0
0.133921 0 0
0.133217 0 0
0.133217 0 0
0.132446 0 0
0.132446 0 0
0.131608 0 0
0.131608 0 0
0.130703 0 0
0.130703 0 0
0.12973 0 0
0.12973 0 0
0.128691 0 0
0.128691 0 0
0.127585 0 0
0.127585 0 0
0.126411 0 0
0.126411 0 0
0.125171 0 0
0.125171 0 0
0.123863 0 0
0.123863 0 0
0.122489 0 0
0.122489 0 0
0.121047 0 0
0.121047 0 0
0.119539 0 0
0.119539 0 0
0.117963 0 0
0.117963 0 0
0.11632 0 0
0.11632 0 0
0.114611 0 0
0.114611 0 0
0.112834 0 0
0.112834 0 0
0.11099 0 0
0.11099 0 0
0.109079 0 0
0.109079 0 0
0.107101 0 0
0.107101 0 0
0.105056 0 0
0.105056 0 0
0.102944 0 0
0.102944 0 0
0.100765 0 0
0.100765 0 0
0.0985187 0 0
0.0985187 0 0
0.0962055 0 0
0.0962055 0 0
0.0938253 0 0
0.0938253 0 0
0.091378 0 0
0.091378 0 0
0.0888637 0 0
0.0888637 0 0
0.0862823 0 0
0.0862823 0 0
0.0836339 0 0
0.0836339 0 0
0.0809184 0 0
0.0809184 0 0
0.078136 0 0
0.078136 0 0
0.0752865 0 0
0.0752865 0 0
0.0723701 0 0
0.0723701 0 0
0.0693866 0 0
0.0693866 0 0
0.0663363 0 0
0.0663363 0 0
0.063219 0 0
0.063219 0 0
0.0600347 0 0
0.0600347 0 0
0.0567836 0 0
0.0567836 0 0
0.0534657 0 0
0.0534657 0 0
0.0500809 0 0
0.0500809 0 0
0.0466292 0 0
0.0466292 0 0
0.0431108 0 0
0.0431108 0 0
0.0395256 0 0
0.0395256 0 0
0.0358736 0 0
0.0358736 0 0
0.0321548 0 0
0.0321548 0 0
0.0283693 0 0
0.0283693 0 0
0.024517 0 0
0.024517 0 0
0.020598 0 0
0.020598 0 0
0.0166121 0 0
0.0166121 0 0
0.0125594 0 0
0.0125594 0 0
0.00843981 0 0
0.00843981 0 0
0.00425336 0 0
0.00425336 0 0
0 0 0
