# vtk DataFile Version 3.0
#This file was generated by the deal.II library on 2025/4/1 at 13:02:17
ASCII
DATASET UNSTRUCTURED_GRID

FIELD FieldData 1
TIME 1 1 double
2.97466
POINTS 256 double
0 0 0
0.0078125 0 0
0.0078125 0 0
0.015625 0 0
0.015625 0 0
0.0234375 0 0
0.0234375 0 0
0.03125 0 0
0.03125 0 0
0.0390625 0 0
0.0390625 0 0
0.046875 0 0
0.046875 0 0
0.0546875 0 0
0.0546875 0 0
0.0625 0 0
0.0625 0 0
0.0703125 0 0
0.0703125 0 0
0.078125 0 0
0.078125 0 0
0.0859375 0 0
0.0859375 0 0
0.09375 0 0
0.09375 0 0
0.101562 0 0
0.101562 0 0
0.109375 0 0
0.109375 0 0
0.117188 0 0
0.117188 0 0
0.125 0 0
0.125 0 0
0.132812 0 0
0.132812 0 0
0.140625 0 0
0.140625 0 0
0.148438 0 0
0.148438 0 0
0.15625 0 0
0.15625 0 0
0.164062 0 0
0.164062 0 0
0.171875 0 0
0.171875 0 0
0.179688 0 0
0.179688 0 0
0.1875 0 0
0.1875 0 0
0.195312 0 0
0.195312 0 0
0.203125 0 0
0.203125 0 0
0.210938 0 0
0.210938 0 0
0.21875 0 0
0.21875 0 0
0.226562 0 0
0.226562 0 0
0.234375 0 0
0.234375 0 0
0.242188 0 0
0.242188 0 0
0.25 0 0
0.25 0 0
0.257812 0 0
0.257812 0 0
0.265625 0 0
0.265625 0 0
0.273438 0 0
0.273438 0 0
0.28125 0 0
0.28125 0 0
0.289062 0 0
0.289062 0 0
0.296875 0 0
0.296875 0 0
0.304688 0 0
0.304688 0 0
0.3125 0 0
0.3125 0 0
0.320312 0 0
0.320312 0 0
0.328125 0 0
0.328125 0 0
0.335938 0 0
0.335938 0 0
0.34375 0 0
0.34375 0 0
0.351562 0 0
0.351562 0 0
0.359375 0 0
0.359375 0 0
0.367188 0 0
0.367188 0 0
0.375 0 0
0.375 0 0
0.382812 0 0
0.382812 0 0
0.390625 0 0
0.390625 0 0
0.398438 0 0
0.398438 0 0
0.40625 0 0
0.40625 0 0
0.414062 0 0
0.414062 0 0
0.421875 0 0
0.421875 0 0
0.429688 0 0
0.429688 0 0
0.4375 0 0
0.4375 0 0
0.445312 0 0
0.445312 0 0
0.453125 0 0
0.453125 0 0
0.460938 0 0
0.460938 0 0
0.46875 0 0
0.46875 0 0
0.476562 0 0
0.476562 0 0
0.484375 0 0
0.484375 0 0
0.492188 0 0
0.492188 0 0
0.5 0 0
0.5 0 0
0.507812 0 0
0.507812 0 0
0.515625 0 0
0.515625 0 0
0.523438 0 0
0.523438 0 0
0.53125 0 0
0.53125 0 0
0.539062 0 0
0.539062 0 0
0.546875 0 0
0.546875 0 0
0.554688 0 0
0.554688 0 0
0.5625 0 0
0.5625 0 0
0.570312 0 0
0.570312 0 0
0.578125 0 0
0.578125 0 0
0.585938 0 0
0.585938 0 0
0.59375 0 0
0.59375 0 0
0.601562 0 0
0.601562 0 0
0.609375 0 0
0.609375 0 0
0.617188 0 0
0.617188 0 0
0.625 0 0
0.625 0 0
0.632812 0 0
0.632812 0 0
0.640625 0 0
0.640625 0 0
0.648438 0 0
0.648438 0 0
0.65625 0 0
0.65625 0 0
0.664062 0 0
0.664062 0 0
0.671875 0 0
0.671875 0 0
0.679688 0 0
0.679688 0 0
0.6875 0 0
0.6875 0 0
0.695312 0 0
0.695312 0 0
0.703125 0 0
0.703125 0 0
0.710938 0 0
0.710938 0 0
0.71875 0 0
0.71875 0 0
0.726562 0 0
0.726562 0 0
0.734375 0 0
0.734375 0 0
0.742188 0 0
0.742188 0 0
0.75 0 0
0.75 0 0
0.757812 0 0
0.757812 0 0
0.765625 0 0
0.765625 0 0
0.773438 0 0
0.773438 0 0
0.78125 0 0
0.78125 0 0
0.789062 0 0
0.789062 0 0
0.796875 0 0
0.796875 0 0
0.804688 0 0
0.804688 0 0
0.8125 0 0
0.8125 0 0
0.820312 0 0
0.820312 0 0
0.828125 0 0
0.828125 0 0
0.835938 0 0
0.835938 0 0
0.84375 0 0
0.84375 0 0
0.851562 0 0
0.851562 0 0
0.859375 0 0
0.859375 0 0
0.867188 0 0
0.867188 0 0
0.875 0 0
0.875 0 0
0.882812 0 0
0.882812 0 0
0.890625 0 0
0.890625 0 0
0.898438 0 0
0.898438 0 0
0.90625 0 0
0.90625 0 0
0.914062 0 0
0.914062 0 0
0.921875 0 0
0.921875 0 0
0.929688 0 0
0.929688 0 0
0.9375 0 0
0.9375 0 0
0.945312 0 0
0.945312 0 0
0.953125 0 0
0.953125 0 0
0.960938 0 0
0.960938 0 0
0.96875 0 0
0.96875 0 0
0.976562 0 0
0.976562 0 0
0.984375 0 0
0.984375 0 0
0.992188 0 0
0.992188 0 0
1 0 0

CELLS 128 384
2	0	1
2	2	3
2	4	5
2	6	7
2	8	9
2	10	11
2	12	13
2	14	15
2	16	17
2	18	19
2	20	21
2	22	23
2	24	25
2	26	27
2	28	29
2	30	31
2	32	33
2	34	35
2	36	37
2	38	39
2	40	41
2	42	43
2	44	45
2	46	47
2	48	49
2	50	51
2	52	53
2	54	55
2	56	57
2	58	59
2	60	61
2	62	63
2	64	65
2	66	67
2	68	69
2	70	71
2	72	73
2	74	75
2	76	77
2	78	79
2	80	81
2	82	83
2	84	85
2	86	87
2	88	89
2	90	91
2	92	93
2	94	95
2	96	97
2	98	99
2	100	101
2	102	103
2	104	105
2	106	107
2	108	109
2	110	111
2	112	113
2	114	115
2	116	117
2	118	119
2	120	121
2	122	123
2	124	125
2	126	127
2	128	129
2	130	131
2	132	133
2	134	135
2	136	137
2	138	139
2	140	141
2	142	143
2	144	145
2	146	147
2	148	149
2	150	151
2	152	153
2	154	155
2	156	157
2	158	159
2	160	161
2	162	163
2	164	165
2	166	167
2	168	169
2	170	171
2	172	173
2	174	175
2	176	177
2	178	179
2	180	181
2	182	183
2	184	185
2	186	187
2	188	189
2	190	191
2	192	193
2	194	195
2	196	197
2	198	199
2	200	201
2	202	203
2	204	205
2	206	207
2	208	209
2	210	211
2	212	213
2	214	215
2	216	217
2	218	219
2	220	221
2	222	223
2	224	225
2	226	227
2	228	229
2	230	231
2	232	233
2	234	235
2	236	237
2	238	239
2	240	241
2	242	243
2	244	245
2	246	247
2	248	249
2	250	251
2	252	253
2	254	255

CELL_TYPES 128
 3 3 3 3 3 3 3 3 3 3 3 3 3 3 3 3 3 3 3 3 3 3 3 3 3 3 3 3 3 3 3 3 3 3 3 3 3 3 3 3 3 3 3 3 3 3 3 3 3 3 3 3 3 3 3 3 3 3 3 3 3 3 3 3 3 3 3 3 3 3 3 3 3 3 3 3 3 3 3 3 3 3 3 3 3 3 3 3 3 3 3 3 3 3 3 3 3 3 3 3 3 3 3 3 3 3 3 3 3 3 3 3 3 3 3 3 3 3 3 3 3 3 3 3 3 3 3 3
POINT_DATA 256
VECTORS displacement double
0 0 0
0.0012656 0 0
0.0012656 0 0
0.00251093 0 0
0.00251093 0 0
0.00373602 0 0
0.00373602 0 0
0.00494088 0 0
0.00494088 0 0
0.00612553 0 0
0.00612553 0 0
0.00728999 0 0
0.00728999 0 0
0.00843427 0 0
0.00843427 0 0
0.0095584 0 0
0.0095584 0 0
0.0106624 0 0
0.0106624 0 0
0.0117462 0 0
0.0117462 0 0
0.01281 0 0
0.01281 0 0
0.0138537 0 0
0.0138537 0 0
0.0148773 0 0
0.0148773 0 0
0.0158808 0 0
0.0158808 0 0
0.0168643 0 0
0.0168643 0 0
0.0178278 0 0
0.0178278 0 0
0.0187712 0 0
0.0187712 0 0
0.0196947 0 0
0.0196947 0 0
0.0205981 0 0
0.0205981 0 0
0.0214816 0 0
0.0214816 0 0
0.0223451 0 0
0.0223451 0 0
0.0231887 0 0
0.0231887 0 0
0.0240123 0 0
0.0240123 0 0
0.024816 0 0
0.024816 0 0
0.0255998 0 0
0.0255998 0 0
0.0263636 0 0
0.0263636 0 0
0.0271076 0 0
0.0271076 0 0
0.0278316 0 0
0.0278316 0 0
0.0285357 0 0
0.0285357 0 0
0.02922 0 0
0.02922 0 0
0.0298844 0 0
0.0298844 0 0
0.0305289 0 0
0.0305289 0 0
0.0311536 0 0
0.0311536 0 0
0.0317583 0 0
0.0317583 0 0
0.0323433 0 0
0.0323433 0 0
0.0329084 0 0
0.0329084 0 0
0.0334536 0 0
0.0334536 0 0
0.033979 0 0
0.033979 0 0
0.0344845 0 0
0.0344845 0 0
0.0349702 0 0
0.0349702 0 0
0.035436 0 0
0.035436 0 0
0.0358821 0 0
0.0358821 0 0
0.0363082 0 0
0.0363082 0 0
0.0367146 0 0
0.0367146 0 0
0.0371011 0 0
0.0371011 0 0
0.0374678 0 0
0.0374678 0 0
0.0378147 0 0
0.0378147 0 0
0.0381417 0 0
0.0381417 0 0
0.0384489 0 0
0.0384489 0 0
0.0387363 0 0
0.0387363 0 0
0.0390039 0 0
0.0390039 0 0
0.0392517 0 0
0.0392517 0 0
0.0394796 0 0
0.0394796 0 0
0.0396877 0 0
0.0396877 0 0
0.039876 0 0
0.039876 0 0
0.0400444 0 0
0.0400444 0 0
0.0401931 0 0
0.0401931 0 0
0.0403219 0 0
0.0403219 0 0
0.0404309 0 0
0.0404309 0 0
0.0405201 0 0
0.0405201 0 0
0.0405895 0 0
0.0405895 0 0
0.040639 0 0
0.040639 0 0
0.0406688 0 0
0.0406688 0 0
0.0406787 0 0
0.0406787 0 0
0.0406688 0 0
0.0406688 0 0
0.040639 0 0
0.040639 0 0
0.0405895 0 0
0.0405895 0 0
0.0405201 0 0
0.0405201 0 0
0.0404309 0 0
0.0404309 0 0
0.0403219 0 0
0.0403219 0 0
0.0401931 0 0
0.0401931 0 0
0.0400444 0 0
0.0400444 0 0
0.039876 0 0
0.039876 0 0
0.0396877 0 0
0.0396877 0 0
0.0394796 0 0
0.0394796 0 0
0.0392517 0 0
0.0392517 0 0
0.0390039 0 0
0.0390039 0 0
0.0387363 0 0
0.0387363 0 0
0.0384489 0 0
0.0384489 0 0
0.0381417 0 0
0.0381417 0 0
0.0378147 0 0
0.0378147 0 0
0.0374678 0 0
0.0374678 0 0
0.0371011 0 0
0.0371011 0 0
0.0367146 0 0
0.0367146 0 0
0.0363082 0 0
0.0363082 0 0
0.0358821 0 0
0.0358821 0 0
0.035436 0 0
0.035436 0 0
0.0349702 0 0
0.0349702 0 0
0.0344845 0 0
0.0344845 0 0
0.033979 0 0
0.033979 0 0
0.0334536 0 0
0.0334536 0 0
0.0329084 0 0
0.0329084 0 0
0.0323433 0 0
0.0323433 0 0
0.0317583 0 0
0.0317583 0 0
0.0311536 0 0
0.0311536 0 0
0.0305289 0 0
0.0305289 0 0
0.0298844 0 0
0.0298844 0 0
0.02922 0 0
0.02922 0 0
0.0285357 0 0
0.0285357 0 0
0.0278316 0 0
0.0278316 0 0
0.0271076 0 0
0.0271076 0 0
0.0263636 0 0
0.0263636 0 0
0.0255998 0 0
0.0255998 0 0
0.024816 0 0
0.024816 0 0
0.0240123 0 0
0.0240123 0 0
0.0231887 0 0
0.0231887 0 0
0.0223451 0 0
0.0223451 0 0
0.0214816 0 0
0.0214816 0 0
0.0205981 0 0
0.0205981 0 0
0.0196947 0 0
0.0196947 0 0
0.0187712 0 0
0.0187712 0 0
0.0178278 0 0
0.0178278 0 0
0.0168643 0 0
0.0168643 0 0
0.0158808 0 0
0.0158808 0 0
0.0148773 0 0
0.0148773 0 0
0.0138537 0 0
0.0138537 0 0
0.01281 0 0
0.01281 0 0
0.0117462 0 0
0.0117462 0 0
0.0106624 0 0
0.0106624 0 0
0.0095584 0 0
0.0095584 0 0
0.00843427 0 0
0.00843427 0 0
0.00728999 0 0
0.00728999 0 0
0.00612553 0 0
0.00612553 0 0
0.00494088 0 0
0.00494088 0 0
0.00373602 0 0
0.00373602 0 0
0.00251093 0 0
0.00251093 0 0
0.0012656 0 0
0.0012656 0 0
0 0 0
VECTORS velocity double
0 0 0
-0.00764652 0 0
-0.00764652 0 0
-0.0151727 0 0
-0.0151727 0 0
-0.0225786 0 0
-0.0225786 0 0
-0.0298641 0 0
-0.0298641 0 0
-0.0370292 0 0
-0.0370292 0 0
-0.0440739 0 0
-0.0440739 0 0
-0.0509982 0 0
-0.0509982 0 0
-0.057802 0 0
-0.057802 0 0
-0.0644854 0 0
-0.0644854 0 0
-0.0710483 0 0
-0.0710483 0 0
-0.0774907 0 0
-0.0774907 0 0
-0.0838125 0 0
-0.0838125 0 0
-0.0900139 0 0
-0.0900139 0 0
-0.0960947 0 0
-0.0960947 0 0
-0.102055 0 0
-0.102055 0 0
-0.107895 0 0
-0.107895 0 0
-0.113614 0 0
-0.113614 0 0
-0.119213 0 0
-0.119213 0 0
-0.124691 0 0
-0.124691 0 0
-0.130048 0 0
-0.130048 0 0
-0.135285 0 0
-0.135285 0 0
-0.140402 0 0
-0.140402 0 0
-0.145397 0 0
-0.145397 0 0
-0.150273 0 0
-0.150273 0 0
-0.155027 0 0
-0.155027 0 0
-0.159662 0 0
-0.159662 0 0
-0.164175 0 0
-0.164175 0 0
-0.168569 0 0
-0.168569 0 0
-0.172841 0 0
-0.172841 0 0
-0.176994 0 0
-0.176994 0 0
-0.181025 0 0
-0.181025 0 0
-0.184937 0 0
-0.184937 0 0
-0.188728 0 0
-0.188728 0 0
-0.192398 0 0
-0.192398 0 0
-0.195948 0 0
-0.195948 0 0
-0.199378 0 0
-0.199378 0 0
-0.202687 0 0
-0.202687 0 0
-0.205875 0 0
-0.205875 0 0
-0.208944 0 0
-0.208944 0 0
-0.211892 0 0
-0.211892 0 0
-0.214719 0 0
-0.214719 0 0
-0.217426 0 0
-0.217426 0 0
-0.220013 0 0
-0.220013 0 0
-0.22248 0 0
-0.22248 0 0
-0.224826 0 0
-0.224826 0 0
-0.227052 0 0
-0.227052 0 0
-0.229157 0 0
-0.229157 0 0
-0.231142 0 0
-0.231142 0 0
-0.233007 0 0
-0.233007 0 0
-0.234751 0 0
-0.234751 0 0
-0.236375 0 0
-0.236375 0 0
-0.237879 0 0
-0.237879 0 0
-0.239263 0 0
-0.239263 0 0
-0.240526 0 0
-0.240526 0 0
-0.241669 0 0
-0.241669 0 0
-0.242691 0 0
-0.242691 0 0
-0.243594 0 0
-0.243594 0 0
-0.244376 0 0
-0.244376 0 0
-0.245037 0 0
-0.245037 0 0
-0.245579 0 0
-0.245579 0 0
-0.246 0 0
-0.246 0 0
-0.2463 0 0
-0.2463 0 0
-0.246481 0 0
-0.246481 0 0
-0.246541 0 0
-0.246541 0 0
-0.246481 0 0
-0.246481 0 0
-0.2463 0 0
-0.2463 0 0
-0.246 0 0
-0.246 0 0
-0.245579 0 0
-0.245579 0 0
-0.245037 0 0
-0.245037 0 0
-0.244376 0 0
-0.244376 0 0
-0.243594 0 0
-0.243594 0 0
-0.242691 0 0
-0.242691 0 0
-0.241669 0 0
-0.241669 0 0
-0.240526 0 0
-0.240526 0 0
-0.239263 0 0
-0.239263 0 0
-0.237879 0 0
-0.237879 0 0
-0.236375 0 0
-0.236375 0 0
-0.234751 0 0
-0.234751 0 0
-0.233007 0 0
-0.233007 0 0
-0.231142 0 0
-0.231142 0 0
-0.229157 0 0
-0.229157 0 0
-0.227052 0 0
-0.227052 0 0
-0.224826 0 0
-0.224826 0 0
-0.22248 0 0
-0.22248 0 0
-0.220013 0 0
-0.220013 0 0
-0.217426 0 0
-0.217426 0 0
-0.214719 0 0
-0.214719 0 0
-0.211892 0 0
-0.211892 0 0
-0.208944 0 0
-0.208944 0 0
-0.205875 0 0
-0.205875 0 0
-0.202687 0 0
-0.202687 0 0
-0.199378 0 0
-0.199378 0 0
-0.195948 0 0
-0.195948 0 0
-0.192398 0 0
-0.192398 0 0
-0.188728 0 0
-0.188728 0 0
-0.184937 0 0
-0.184937 0 0
-0.181025 0 0
-0.181025 0 0
-0.176994 0 0
-0.176994 0 0
-0.172841 0 0
-0.172841 0 0
-0.168569 0 0
-0.168569 0 0
-0.164175 0 0
-0.164175 0 0
-0.159662 0 0
-0.159662 0 0
-0.155027 0 0
-0.155027 0 0
-0.150273 0 0
-0.150273 0 0
-0.145397 0 0
-0.145397 0 0
-0.140402 0 0
-0.140402 0 0
-0.135285 0 0
-0.135285 0 0
-0.130048 0 0
-0.130048 0 0
-0.124691 0 0
-0.124691 0 0
-0.119213 0 0
-0.119213 0 0
-0.113614 0 0
-0.113614 0 0
-0.107895 0 0
-0.107895 0 0
-0.102055 0 0
-0.102055 0 0
-0.0960947 0 0
-0.0960947 0 0
-0.0900139 0 0
-0.0900139 0 0
-0.0838125 0 0
-0.0838125 0 0
-0.0774907 0 0
-0.0774907 0 0
-0.0710483 0 0
-0.0710483 0 0
-0.0644854 0 0
-0.0644854 0 0
-0.057802 0 0
-0.057802 0 0
-0.0509982 0 0
-0.0509982 0 0
-0.0440739 0 0
-0.0440739 0 0
-0.0370292 0 0
-0.0370292 0 0
-0.0298641 0 0
-0.0298641 0 0
-0.0225786 0 0
-0.0225786 0 0
-0.0151727 0 0
-0.0151727 0 0
-0.00764652 0 0
-0.00764652 0 0
0 0 0
