# vtk DataFile Version 3.0
#This file was generated by the deal.II library on 2025/4/1 at 13:01:47
ASCII
DATASET UNSTRUCTURED_GRID

FIELD FieldData 1
TIME 1 1 double
3.00781
POINTS 128 double
0 0 0
0.015625 0 0
0.015625 0 0
0.03125 0 0
0.03125 0 0
0.046875 0 0
0.046875 0 0
0.0625 0 0
0.0625 0 0
0.078125 0 0
0.078125 0 0
0.09375 0 0
0.09375 0 0
0.109375 0 0
0.109375 0 0
0.125 0 0
0.125 0 0
0.140625 0 0
0.140625 0 0
0.15625 0 0
0.15625 0 0
0.171875 0 0
0.171875 0 0
0.1875 0 0
0.1875 0 0
0.203125 0 0
0.203125 0 0
0.21875 0 0
0.21875 0 0
0.234375 0 0
0.234375 0 0
0.25 0 0
0.25 0 0
0.265625 0 0
0.265625 0 0
0.28125 0 0
0.28125 0 0
0.296875 0 0
0.296875 0 0
0.3125 0 0
0.3125 0 0
0.328125 0 0
0.328125 0 0
0.34375 0 0
0.34375 0 0
0.359375 0 0
0.359375 0 0
0.375 0 0
0.375 0 0
0.390625 0 0
0.390625 0 0
0.40625 0 0
0.40625 0 0
0.421875 0 0
0.421875 0 0
0.4375 0 0
0.4375 0 0
0.453125 0 0
0.453125 0 0
0.46875 0 0
0.46875 0 0
0.484375 0 0
0.484375 0 0
0.5 0 0
0.5 0 0
0.515625 0 0
0.515625 0 0
0.53125 0 0
0.53125 0 0
0.546875 0 0
0.546875 0 0
0.5625 0 0
0.5625 0 0
0.578125 0 0
0.578125 0 0
0.59375 0 0
0.59375 0 0
0.609375 0 0
0.609375 0 0
0.625 0 0
0.625 0 0
0.640625 0 0
0.640625 0 0
0.65625 0 0
0.65625 0 0
0.671875 0 0
0.671875 0 0
0.6875 0 0
0.6875 0 0
0.703125 0 0
0.703125 0 0
0.71875 0 0
0.71875 0 0
0.734375 0 0
0.734375 0 0
0.75 0 0
0.75 0 0
0.765625 0 0
0.765625 0 0
0.78125 0 0
0.78125 0 0
0.796875 0 0
0.796875 0 0
0.8125 0 0
0.8125 0 0
0.828125 0 0
0.828125 0 0
0.84375 0 0
0.84375 0 0
0.859375 0 0
0.859375 0 0
0.875 0 0
0.875 0 0
0.890625 0 0
0.890625 0 0
0.90625 0 0
0.90625 0 0
0.921875 0 0
0.921875 0 0
0.9375 0 0
0.9375 0 0
0.953125 0 0
0.953125 0 0
0.96875 0 0
0.96875 0 0
0.984375 0 0
0.984375 0 0
1 0 0

CELLS 64 192
2	0	1
2	2	3
2	4	5
2	6	7
2	8	9
2	10	11
2	12	13
2	14	15
2	16	17
2	18	19
2	20	21
2	22	23
2	24	25
2	26	27
2	28	29
2	30	31
2	32	33
2	34	35
2	36	37
2	38	39
2	40	41
2	42	43
2	44	45
2	46	47
2	48	49
2	50	51
2	52	53
2	54	55
2	56	57
2	58	59
2	60	61
2	62	63
2	64	65
2	66	67
2	68	69
2	70	71
2	72	73
2	74	75
2	76	77
2	78	79
2	80	81
2	82	83
2	84	85
2	86	87
2	88	89
2	90	91
2	92	93
2	94	95
2	96	97
2	98	99
2	100	101
2	102	103
2	104	105
2	106	107
2	108	109
2	110	111
2	112	113
2	114	115
2	116	117
2	118	119
2	120	121
2	122	123
2	124	125
2	126	127

CELL_TYPES 64
 3 3 3 3 3 3 3 3 3 3 3 3 3 3 3 3 3 3 3 3 3 3 3 3 3 3 3 3 3 3 3 3 3 3 3 3 3 3 3 3 3 3 3 3 3 3 3 3 3 3 3 3 3 3 3 3 3 3 3 3 3 3 3 3
POINT_DATA 128
VECTORS displacement double
0 0 0
0.00205149 0 0
0.00205149 0 0
0.00403785 0 0
0.00403785 0 0
0.00595908 0 0
0.00595908 0 0
0.00781519 0 0
0.00781519 0 0
0.00960617 0 0
0.00960617 0 0
0.011332 0 0
0.011332 0 0
0.0129927 0 0
0.0129927 0 0
0.0145883 0 0
0.0145883 0 0
0.0161188 0 0
0.0161188 0 0
0.0175842 0 0
0.0175842 0 0
0.0189844 0 0
0.0189844 0 0
0.0203195 0 0
0.0203195 0 0
0.0215895 0 0
0.0215895 0 0
0.0227943 0 0
0.0227943 0 0
0.023934 0 0
0.023934 0 0
0.0250086 0 0
0.0250086 0 0
0.0260181 0 0
0.0260181 0 0
0.0269624 0 0
0.0269624 0 0
0.0278416 0 0
0.0278416 0 0
0.0286557 0 0
0.0286557 0 0
0.0294046 0 0
0.0294046 0 0
0.0300885 0 0
0.0300885 0 0
0.0307072 0 0
0.0307072 0 0
0.0312607 0 0
0.0312607 0 0
0.0317492 0 0
0.0317492 0 0
0.0321725 0 0
0.0321725 0 0
0.0325307 0 0
0.0325307 0 0
0.0328238 0 0
0.0328238 0 0
0.0330517 0 0
0.0330517 0 0
0.0332145 0 0
0.0332145 0 0
0.0333122 0 0
0.0333122 0 0
0.0333448 0 0
0.0333448 0 0
0.0333122 0 0
0.0333122 0 0
0.0332145 0 0
0.0332145 0 0
0.0330517 0 0
0.0330517 0 0
0.0328238 0 0
0.0328238 0 0
0.0325307 0 0
0.0325307 0 0
0.0321725 0 0
0.0321725 0 0
0.0317492 0 0
0.0317492 0 0
0.0312607 0 0
0.0312607 0 0
0.0307072 0 0
0.0307072 0 0
0.0300885 0 0
0.0300885 0 0
0.0294046 0 0
0.0294046 0 0
0.0286557 0 0
0.0286557 0 0
0.0278416 0 0
0.0278416 0 0
0.0269624 0 0
0.0269624 0 0
0.0260181 0 0
0.0260181 0 0
0.0250086 0 0
0.0250086 0 0
0.023934 0 0
0.023934 0 0
0.0227943 0 0
0.0227943 0 0
0.0215895 0 0
0.0215895 0 0
0.0203195 0 0
0.0203195 0 0
0.0189844 0 0
0.0189844 0 0
0.0175842 0 0
0.0175842 0 0
0.0161188 0 0
0.0161188 0 0
0.0145883 0 0
0.0145883 0 0
0.0129927 0 0
0.0129927 0 0
0.011332 0 0
0.011332 0 0
0.00960617 0 0
0.00960617 0 0
0.00781519 0 0
0.00781519 0 0
0.00595908 0 0
0.00595908 0 0
0.00403785 0 0
0.00403785 0 0
0.00205149 0 0
0.00205149 0 0
0 0 0
VECTORS velocity double
0 0 0
-0.0152434 0 0
-0.0152434 0 0
-0.0300029 0 0
-0.0300029 0 0
-0.0442785 0 0
-0.0442785 0 0
-0.0580702 0 0
-0.0580702 0 0
-0.071378 0 0
-0.071378 0 0
-0.0842018 0 0
-0.0842018 0 0
-0.0965417 0 0
-0.0965417 0 0
-0.108398 0 0
-0.108398 0 0
-0.11977 0 0
-0.11977 0 0
-0.130658 0 0
-0.130658 0 0
-0.141062 0 0
-0.141062 0 0
-0.150983 0 0
-0.150983 0 0
-0.160419 0 0
-0.160419 0 0
-0.169371 0 0
-0.169371 0 0
-0.17784 0 0
-0.17784 0 0
-0.185825 0 0
-0.185825 0 0
-0.193325 0 0
-0.193325 0 0
-0.200342 0 0
-0.200342 0 0
-0.206875 0 0
-0.206875 0 0
-0.212924 0 0
-0.212924 0 0
-0.218489 0 0
-0.218489 0 0
-0.22357 0 0
-0.22357 0 0
-0.228168 0 0
-0.228168 0 0
-0.232281 0 0
-0.232281 0 0
-0.23591 0 0
-0.23591 0 0
-0.239056 0 0
-0.239056 0 0
-0.241717 0 0
-0.241717 0 0
-0.243895 0 0
-0.243895 0 0
-0.245589 0 0
-0.245589 0 0
-0.246798 0 0
-0.246798 0 0
-0.247524 0 0
-0.247524 0 0
-0.247766 0 0
-0.247766 0 0
-0.247524 0 0
-0.247524 0 0
-0.246798 0 0
-0.246798 0 0
-0.245589 0 0
-0.245589 0 0
-0.243895 0 0
-0.243895 0 0
-0.241717 0 0
-0.241717 0 0
-0.239056 0 0
-0.239056 0 0
-0.23591 0 0
-0.23591 0 0
-0.232281 0 0
-0.232281 0 0
-0.228168 0 0
-0.228168 0 0
-0.22357 0 0
-0.22357 0 0
-0.218489 0 0
-0.218489 0 0
-0.212924 0 0
-0.212924 0 0
-0.206875 0 0
-0.206875 0 0
-0.200342 0 0
-0.200342 0 0
-0.193325 0 0
-0.193325 0 0
-0.185825 0 0
-0.185825 0 0
-0.17784 0 0
-0.17784 0 0
-0.169371 0 0
-0.169371 0 0
-0.160419 0 0
-0.160419 0 0
-0.150983 0 0
-0.150983 0 0
-0.141062 0 0
-0.141062 0 0
-0.130658 0 0
-0.130658 0 0
-0.11977 0 0
-0.11977 0 0
-0.108398 0 0
-0.108398 0 0
-0.0965417 0 0
-0.0965417 0 0
-0.0842018 0 0
-0.0842018 0 0
-0.071378 0 0
-0.071378 0 0
-0.0580702 0 0
-0.0580702 0 0
-0.0442785 0 0
-0.0442785 0 0
-0.0300029 0 0
-0.0300029 0 0
-0.0152434 0 0
-0.0152434 0 0
0 0 0
