# vtk DataFile Version 3.0
#This file was generated by the deal.II library on 2025/4/1 at 13:01:19
ASCII
DATASET UNSTRUCTURED_GRID

FIELD FieldData 1
TIME 1 1 double
1.59375
POINTS 128 double
0 0 0
0.015625 0 0
0.015625 0 0
0.03125 0 0
0.03125 0 0
0.046875 0 0
0.046875 0 0
0.0625 0 0
0.0625 0 0
0.078125 0 0
0.078125 0 0
0.09375 0 0
0.09375 0 0
0.109375 0 0
0.109375 0 0
0.125 0 0
0.125 0 0
0.140625 0 0
0.140625 0 0
0.15625 0 0
0.15625 0 0
0.171875 0 0
0.171875 0 0
0.1875 0 0
0.1875 0 0
0.203125 0 0
0.203125 0 0
0.21875 0 0
0.21875 0 0
0.234375 0 0
0.234375 0 0
0.25 0 0
0.25 0 0
0.265625 0 0
0.265625 0 0
0.28125 0 0
0.28125 0 0
0.296875 0 0
0.296875 0 0
0.3125 0 0
0.3125 0 0
0.328125 0 0
0.328125 0 0
0.34375 0 0
0.34375 0 0
0.359375 0 0
0.359375 0 0
0.375 0 0
0.375 0 0
0.390625 0 0
0.390625 0 0
0.40625 0 0
0.40625 0 0
0.421875 0 0
0.421875 0 0
0.4375 0 0
0.4375 0 0
0.453125 0 0
0.453125 0 0
0.46875 0 0
0.46875 0 0
0.484375 0 0
0.484375 0 0
0.5 0 0
0.5 0 0
0.515625 0 0
0.515625 0 0
0.53125 0 0
0.53125 0 0
0.546875 0 0
0.546875 0 0
0.5625 0 0
0.5625 0 0
0.578125 0 0
0.578125 0 0
0.59375 0 0
0.59375 0 0
0.609375 0 0
0.609375 0 0
0.625 0 0
0.625 0 0
0.640625 0 0
0.640625 0 0
0.65625 0 0
0.65625 0 0
0.671875 0 0
0.671875 0 0
0.6875 0 0
0.6875 0 0
0.703125 0 0
0.703125 0 0
0.71875 0 0
0.71875 0 0
0.734375 0 0
0.734375 0 0
0.75 0 0
0.75 0 0
0.765625 0 0
0.765625 0 0
0.78125 0 0
0.78125 0 0
0.796875 0 0
0.796875 0 0
0.8125 0 0
0.8125 0 0
0.828125 0 0
0.828125 0 0
0.84375 0 0
0.84375 0 0
0.859375 0 0
0.859375 0 0
0.875 0 0
0.875 0 0
0.890625 0 0
0.890625 0 0
0.90625 0 0
0.90625 0 0
0.921875 0 0
0.921875 0 0
0.9375 0 0
0.9375 0 0
0.953125 0 0
0.953125 0 0
0.96875 0 0
0.96875 0 0
0.984375 0 0
0.984375 0 0
1 0 0

CELLS 64 192
2	0	1
2	2	3
2	4	5
2	6	7
2	8	9
2	10	11
2	12	13
2	14	15
2	16	17
2	18	19
2	20	21
2	22	23
2	24	25
2	26	27
2	28	29
2	30	31
2	32	33
2	34	35
2	36	37
2	38	39
2	40	41
2	42	43
2	44	45
2	46	47
2	48	49
2	50	51
2	52	53
2	54	55
2	56	57
2	58	59
2	60	61
2	62	63
2	64	65
2	66	67
2	68	69
2	70	71
2	72	73
2	74	75
2	76	77
2	78	79
2	80	81
2	82	83
2	84	85
2	86	87
2	88	89
2	90	91
2	92	93
2	94	95
2	96	97
2	98	99
2	100	101
2	102	103
2	104	105
2	106	107
2	108	109
2	110	111
2	112	113
2	114	115
2	116	117
2	118	119
2	120	121
2	122	123
2	124	125
2	126	127

CELL_TYPES 64
 3 3 3 3 3 3 3 3 3 3 3 3 3 3 3 3 3 3 3 3 3 3 3 3 3 3 3 3 3 3 3 3 3 3 3 3 3 3 3 3 3 3 3 3 3 3 3 3 3 3 3 3 3 3 3 3 3 3 3 3 3 3 3 3
POINT_DATA 128
VECTORS displacement double
0 0 0
0.0153765 0 0
0.0153765 0 0
0.0302649 0 0
0.0302649 0 0
0.0446651 0 0
0.0446651 0 0
0.0585772 0 0
0.0585772 0 0
0.0720011 0 0
0.0720011 0 0
0.0849369 0 0
0.0849369 0 0
0.0973846 0 0
0.0973846 0 0
0.109344 0 0
0.109344 0 0
0.120815 0 0
0.120815 0 0
0.131799 0 0
0.131799 0 0
0.142294 0 0
0.142294 0 0
0.152301 0 0
0.152301 0 0
0.161819 0 0
0.161819 0 0
0.17085 0 0
0.17085 0 0
0.179393 0 0
0.179393 0 0
0.187447 0 0
0.187447 0 0
0.195013 0 0
0.195013 0 0
0.202091 0 0
0.202091 0 0
0.208681 0 0
0.208681 0 0
0.214783 0 0
0.214783 0 0
0.220397 0 0
0.220397 0 0
0.225522 0 0
0.225522 0 0
0.230159 0 0
0.230159 0 0
0.234309 0 0
0.234309 0 0
0.23797 0 0
0.23797 0 0
0.241143 0 0
0.241143 0 0
0.243827 0 0
0.243827 0 0
0.246024 0 0
0.246024 0 0
0.247733 0 0
0.247733 0 0
0.248953 0 0
0.248953 0 0
0.249685 0 0
0.249685 0 0
0.249929 0 0
0.249929 0 0
0.249685 0 0
0.249685 0 0
0.248953 0 0
0.248953 0 0
0.247733 0 0
0.247733 0 0
0.246024 0 0
0.246024 0 0
0.243827 0 0
0.243827 0 0
0.241143 0 0
0.241143 0 0
0.23797 0 0
0.23797 0 0
0.234309 0 0
0.234309 0 0
0.230159 0 0
0.230159 0 0
0.225522 0 0
0.225522 0 0
0.220397 0 0
0.220397 0 0
0.214783 0 0
0.214783 0 0
0.208681 0 0
0.208681 0 0
0.202091 0 0
0.202091 0 0
0.195013 0 0
0.195013 0 0
0.187447 0 0
0.187447 0 0
0.179393 0 0
0.179393 0 0
0.17085 0 0
0.17085 0 0
0.161819 0 0
0.161819 0 0
0.152301 0 0
0.152301 0 0
0.142294 0 0
0.142294 0 0
0.131799 0 0
0.131799 0 0
0.120815 0 0
0.120815 0 0
0.109344 0 0
0.109344 0 0
0.0973846 0 0
0.0973846 0 0
0.0849369 0 0
0.0849369 0 0
0.0720011 0 0
0.0720011 0 0
0.0585772 0 0
0.0585772 0 0
0.0446651 0 0
0.0446651 0 0
0.0302649 0 0
0.0302649 0 0
0.0153765 0 0
0.0153765 0 0
0 0 0
VECTORS velocity double
0 0 0
-0.000352978 0 0
-0.000352978 0 0
-0.00069475 0 0
-0.00069475 0 0
-0.00102531 0 0
-0.00102531 0 0
-0.00134467 0 0
-0.00134467 0 0
-0.00165282 0 0
-0.00165282 0 0
-0.00194977 0 0
-0.00194977 0 0
-0.00223551 0 0
-0.00223551 0 0
-0.00251004 0 0
-0.00251004 0 0
-0.00277336 0 0
-0.00277336 0 0
-0.00302548 0 0
-0.00302548 0 0
-0.00326639 0 0
-0.00326639 0 0
-0.0034961 0 0
-0.0034961 0 0
-0.0037146 0 0
-0.0037146 0 0
-0.00392189 0 0
-0.00392189 0 0
-0.00411797 0 0
-0.00411797 0 0
-0.00430285 0 0
-0.00430285 0 0
-0.00447652 0 0
-0.00447652 0 0
-0.00463899 0 0
-0.00463899 0 0
-0.00479024 0 0
-0.00479024 0 0
-0.0049303 0 0
-0.0049303 0 0
-0.00505914 0 0
-0.00505914 0 0
-0.00517678 0 0
-0.00517678 0 0
-0.00528321 0 0
-0.00528321 0 0
-0.00537844 0 0
-0.00537844 0 0
-0.00546245 0 0
-0.00546245 0 0
-0.00553527 0 0
-0.00553527 0 0
-0.00559688 0 0
-0.00559688 0 0
-0.00564729 0 0
-0.00564729 0 0
-0.00568649 0 0
-0.00568649 0 0
-0.00571449 0 0
-0.00571449 0 0
-0.0057313 0 0
-0.0057313 0 0
-0.0057369 0 0
-0.0057369 0 0
-0.0057313 0 0
-0.0057313 0 0
-0.00571449 0 0
-0.00571449 0 0
-0.00568649 0 0
-0.00568649 0 0
-0.00564729 0 0
-0.00564729 0 0
-0.00559688 0 0
-0.00559688 0 0
-0.00553527 0 0
-0.00553527 0 0
-0.00546245 0 0
-0.00546245 0 0
-0.00537844 0 0
-0.00537844 0 0
-0.00528321 0 0
-0.00528321 0 0
-0.00517678 0 0
-0.00517678 0 0
-0.00505914 0 0
-0.00505914 0 0
-0.0049303 0 0
-0.0049303 0 0
-0.00479024 0 0
-0.00479024 0 0
-0.00463899 0 0
-0.00463899 0 0
-0.00447652 0 0
-0.00447652 0 0
-0.00430285 0 0
-0.00430285 0 0
-0.00411797 0 0
-0.00411797 0 0
-0.00392189 0 0
-0.00392189 0 0
-0.0037146 0 0
-0.0037146 0 0
-0.0034961 0 0
-0.0034961 0 0
-0.00326639 0 0
-0.00326639 0 0
-0.00302548 0 0
-0.00302548 0 0
-0.00277336 0 0
-0.00277336 0 0
-0.00251004 0 0
-0.00251004 0 0
-0.00223551 0 0
-0.00223551 0 0
-0.00194977 0 0
-0.00194977 0 0
-0.00165282 0 0
-0.00165282 0 0
-0.00134467 0 0
-0.00134467 0 0
-0.00102531 0 0
-0.00102531 0 0
-0.00069475 0 0
-0.00069475 0 0
-0.000352978 0 0
-0.000352978 0 0
0 0 0
