# vtk DataFile Version 3.0
#This file was generated by the deal.II library on 2025/4/1 at 13:01:24
ASCII
DATASET UNSTRUCTURED_GRID

FIELD FieldData 1
TIME 1 1 double
1.86719
POINTS 128 double
0 0 0
0.015625 0 0
0.015625 0 0
0.03125 0 0
0.03125 0 0
0.046875 0 0
0.046875 0 0
0.0625 0 0
0.0625 0 0
0.078125 0 0
0.078125 0 0
0.09375 0 0
0.09375 0 0
0.109375 0 0
0.109375 0 0
0.125 0 0
0.125 0 0
0.140625 0 0
0.140625 0 0
0.15625 0 0
0.15625 0 0
0.171875 0 0
0.171875 0 0
0.1875 0 0
0.1875 0 0
0.203125 0 0
0.203125 0 0
0.21875 0 0
0.21875 0 0
0.234375 0 0
0.234375 0 0
0.25 0 0
0.25 0 0
0.265625 0 0
0.265625 0 0
0.28125 0 0
0.28125 0 0
0.296875 0 0
0.296875 0 0
0.3125 0 0
0.3125 0 0
0.328125 0 0
0.328125 0 0
0.34375 0 0
0.34375 0 0
0.359375 0 0
0.359375 0 0
0.375 0 0
0.375 0 0
0.390625 0 0
0.390625 0 0
0.40625 0 0
0.40625 0 0
0.421875 0 0
0.421875 0 0
0.4375 0 0
0.4375 0 0
0.453125 0 0
0.453125 0 0
0.46875 0 0
0.46875 0 0
0.484375 0 0
0.484375 0 0
0.5 0 0
0.5 0 0
0.515625 0 0
0.515625 0 0
0.53125 0 0
0.53125 0 0
0.546875 0 0
0.546875 0 0
0.5625 0 0
0.5625 0 0
0.578125 0 0
0.578125 0 0
0.59375 0 0
0.59375 0 0
0.609375 0 0
0.609375 0 0
0.625 0 0
0.625 0 0
0.640625 0 0
0.640625 0 0
0.65625 0 0
0.65625 0 0
0.671875 0 0
0.671875 0 0
0.6875 0 0
0.6875 0 0
0.703125 0 0
0.703125 0 0
0.71875 0 0
0.71875 0 0
0.734375 0 0
0.734375 0 0
0.75 0 0
0.75 0 0
0.765625 0 0
0.765625 0 0
0.78125 0 0
0.78125 0 0
0.796875 0 0
0.796875 0 0
0.8125 0 0
0.8125 0 0
0.828125 0 0
0.828125 0 0
0.84375 0 0
0.84375 0 0
0.859375 0 0
0.859375 0 0
0.875 0 0
0.875 0 0
0.890625 0 0
0.890625 0 0
0.90625 0 0
0.90625 0 0
0.921875 0 0
0.921875 0 0
0.9375 0 0
0.9375 0 0
0.953125 0 0
0.953125 0 0
0.96875 0 0
0.96875 0 0
0.984375 0 0
0.984375 0 0
1 0 0

CELLS 64 192
2	0	1
2	2	3
2	4	5
2	6	7
2	8	9
2	10	11
2	12	13
2	14	15
2	16	17
2	18	19
2	20	21
2	22	23
2	24	25
2	26	27
2	28	29
2	30	31
2	32	33
2	34	35
2	36	37
2	38	39
2	40	41
2	42	43
2	44	45
2	46	47
2	48	49
2	50	51
2	52	53
2	54	55
2	56	57
2	58	59
2	60	61
2	62	63
2	64	65
2	66	67
2	68	69
2	70	71
2	72	73
2	74	75
2	76	77
2	78	79
2	80	81
2	82	83
2	84	85
2	86	87
2	88	89
2	90	91
2	92	93
2	94	95
2	96	97
2	98	99
2	100	101
2	102	103
2	104	105
2	106	107
2	108	109
2	110	111
2	112	113
2	114	115
2	116	117
2	118	119
2	120	121
2	122	123
2	124	125
2	126	127

CELL_TYPES 64
 3 3 3 3 3 3 3 3 3 3 3 3 3 3 3 3 3 3 3 3 3 3 3 3 3 3 3 3 3 3 3 3 3 3 3 3 3 3 3 3 3 3 3 3 3 3 3 3 3 3 3 3 3 3 3 3 3 3 3 3 3 3 3 3
POINT_DATA 128
VECTORS displacement double
0 0 0
0.0147099 0 0
0.0147099 0 0
0.0289529 0 0
0.0289529 0 0
0.0427289 0 0
0.0427289 0 0
0.0560379 0 0
0.0560379 0 0
0.0688799 0 0
0.0688799 0 0
0.0812549 0 0
0.0812549 0 0
0.093163 0 0
0.093163 0 0
0.104604 0 0
0.104604 0 0
0.115578 0 0
0.115578 0 0
0.126085 0 0
0.126085 0 0
0.136125 0 0
0.136125 0 0
0.145698 0 0
0.145698 0 0
0.154805 0 0
0.154805 0 0
0.163444 0 0
0.163444 0 0
0.171616 0 0
0.171616 0 0
0.179321 0 0
0.179321 0 0
0.186559 0 0
0.186559 0 0
0.193331 0 0
0.193331 0 0
0.199635 0 0
0.199635 0 0
0.205472 0 0
0.205472 0 0
0.210842 0 0
0.210842 0 0
0.215746 0 0
0.215746 0 0
0.220182 0 0
0.220182 0 0
0.224151 0 0
0.224151 0 0
0.227654 0 0
0.227654 0 0
0.230689 0 0
0.230689 0 0
0.233258 0 0
0.233258 0 0
0.235359 0 0
0.235359 0 0
0.236993 0 0
0.236993 0 0
0.238161 0 0
0.238161 0 0
0.238861 0 0
0.238861 0 0
0.239095 0 0
0.239095 0 0
0.238861 0 0
0.238861 0 0
0.238161 0 0
0.238161 0 0
0.236993 0 0
0.236993 0 0
0.235359 0 0
0.235359 0 0
0.233258 0 0
0.233258 0 0
0.230689 0 0
0.230689 0 0
0.227654 0 0
0.227654 0 0
0.224151 0 0
0.224151 0 0
0.220182 0 0
0.220182 0 0
0.215746 0 0
0.215746 0 0
0.210842 0 0
0.210842 0 0
0.205472 0 0
0.205472 0 0
0.199635 0 0
0.199635 0 0
0.193331 0 0
0.193331 0 0
0.186559 0 0
0.186559 0 0
0.179321 0 0
0.179321 0 0
0.171616 0 0
0.171616 0 0
0.163444 0 0
0.163444 0 0
0.154805 0 0
0.154805 0 0
0.145698 0 0
0.145698 0 0
0.136125 0 0
0.136125 0 0
0.126085 0 0
0.126085 0 0
0.115578 0 0
0.115578 0 0
0.104604 0 0
0.104604 0 0
0.093163 0 0
0.093163 0 0
0.0812549 0 0
0.0812549 0 0
0.0688799 0 0
0.0688799 0 0
0.0560379 0 0
0.0560379 0 0
0.0427289 0 0
0.0427289 0 0
0.0289529 0 0
0.0289529 0 0
0.0147099 0 0
0.0147099 0 0
0 0 0
VECTORS velocity double
0 0 0
-0.00449212 0 0
-0.00449212 0 0
-0.00884162 0 0
-0.00884162 0 0
-0.0130485 0 0
-0.0130485 0 0
-0.0171128 0 0
-0.0171128 0 0
-0.0210345 0 0
-0.0210345 0 0
-0.0248135 0 0
-0.0248135 0 0
-0.02845 0 0
-0.02845 0 0
-0.0319438 0 0
-0.0319438 0 0
-0.0352951 0 0
-0.0352951 0 0
-0.0385037 0 0
-0.0385037 0 0
-0.0415697 0 0
-0.0415697 0 0
-0.0444931 0 0
-0.0444931 0 0
-0.0472739 0 0
-0.0472739 0 0
-0.0499121 0 0
-0.0499121 0 0
-0.0524077 0 0
-0.0524077 0 0
-0.0547607 0 0
-0.0547607 0 0
-0.0569711 0 0
-0.0569711 0 0
-0.0590389 0 0
-0.0590389 0 0
-0.060964 0 0
-0.060964 0 0
-0.0627466 0 0
-0.0627466 0 0
-0.0643866 0 0
-0.0643866 0 0
-0.0658839 0 0
-0.0658839 0 0
-0.0672387 0 0
-0.0672387 0 0
-0.0684508 0 0
-0.0684508 0 0
-0.0695204 0 0
-0.0695204 0 0
-0.0704473 0 0
-0.0704473 0 0
-0.0712316 0 0
-0.0712316 0 0
-0.0718734 0 0
-0.0718734 0 0
-0.0723725 0 0
-0.0723725 0 0
-0.072729 0 0
-0.072729 0 0
-0.0729429 0 0
-0.0729429 0 0
-0.0730142 0 0
-0.0730142 0 0
-0.0729429 0 0
-0.0729429 0 0
-0.072729 0 0
-0.072729 0 0
-0.0723725 0 0
-0.0723725 0 0
-0.0718734 0 0
-0.0718734 0 0
-0.0712316 0 0
-0.0712316 0 0
-0.0704473 0 0
-0.0704473 0 0
-0.0695204 0 0
-0.0695204 0 0
-0.0684508 0 0
-0.0684508 0 0
-0.0672387 0 0
-0.0672387 0 0
-0.0658839 0 0
-0.0658839 0 0
-0.0643866 0 0
-0.0643866 0 0
-0.0627466 0 0
-0.0627466 0 0
-0.060964 0 0
-0.060964 0 0
-0.0590389 0 0
-0.0590389 0 0
-0.0569711 0 0
-0.0569711 0 0
-0.0547607 0 0
-0.0547607 0 0
-0.0524077 0 0
-0.0524077 0 0
-0.0499121 0 0
-0.0499121 0 0
-0.0472739 0 0
-0.0472739 0 0
-0.0444931 0 0
-0.0444931 0 0
-0.0415697 0 0
-0.0415697 0 0
-0.0385037 0 0
-0.0385037 0 0
-0.0352951 0 0
-0.0352951 0 0
-0.0319438 0 0
-0.0319438 0 0
-0.02845 0 0
-0.02845 0 0
-0.0248135 0 0
-0.0248135 0 0
-0.0210345 0 0
-0.0210345 0 0
-0.0171128 0 0
-0.0171128 0 0
-0.0130485 0 0
-0.0130485 0 0
-0.00884162 0 0
-0.00884162 0 0
-0.00449212 0 0
-0.00449212 0 0
0 0 0
