# vtk DataFile Version 3.0
#This file was generated by the deal.II library on 2025/4/1 at 13:02:00
ASCII
DATASET UNSTRUCTURED_GRID

FIELD FieldData 1
TIME 1 1 double
3.72656
POINTS 128 double
0 0 0
0.015625 0 0
0.015625 0 0
0.03125 0 0
0.03125 0 0
0.046875 0 0
0.046875 0 0
0.0625 0 0
0.0625 0 0
0.078125 0 0
0.078125 0 0
0.09375 0 0
0.09375 0 0
0.109375 0 0
0.109375 0 0
0.125 0 0
0.125 0 0
0.140625 0 0
0.140625 0 0
0.15625 0 0
0.15625 0 0
0.171875 0 0
0.171875 0 0
0.1875 0 0
0.1875 0 0
0.203125 0 0
0.203125 0 0
0.21875 0 0
0.21875 0 0
0.234375 0 0
0.234375 0 0
0.25 0 0
0.25 0 0
0.265625 0 0
0.265625 0 0
0.28125 0 0
0.28125 0 0
0.296875 0 0
0.296875 0 0
0.3125 0 0
0.3125 0 0
0.328125 0 0
0.328125 0 0
0.34375 0 0
0.34375 0 0
0.359375 0 0
0.359375 0 0
0.375 0 0
0.375 0 0
0.390625 0 0
0.390625 0 0
0.40625 0 0
0.40625 0 0
0.421875 0 0
0.421875 0 0
0.4375 0 0
0.4375 0 0
0.453125 0 0
0.453125 0 0
0.46875 0 0
0.46875 0 0
0.484375 0 0
0.484375 0 0
0.5 0 0
0.5 0 0
0.515625 0 0
0.515625 0 0
0.53125 0 0
0.53125 0 0
0.546875 0 0
0.546875 0 0
0.5625 0 0
0.5625 0 0
0.578125 0 0
0.578125 0 0
0.59375 0 0
0.59375 0 0
0.609375 0 0
0.609375 0 0
0.625 0 0
0.625 0 0
0.640625 0 0
0.640625 0 0
0.65625 0 0
0.65625 0 0
0.671875 0 0
0.671875 0 0
0.6875 0 0
0.6875 0 0
0.703125 0 0
0.703125 0 0
0.71875 0 0
0.71875 0 0
0.734375 0 0
0.734375 0 0
0.75 0 0
0.75 0 0
0.765625 0 0
0.765625 0 0
0.78125 0 0
0.78125 0 0
0.796875 0 0
0.796875 0 0
0.8125 0 0
0.8125 0 0
0.828125 0 0
0.828125 0 0
0.84375 0 0
0.84375 0 0
0.859375 0 0
0.859375 0 0
0.875 0 0
0.875 0 0
0.890625 0 0
0.890625 0 0
0.90625 0 0
0.90625 0 0
0.921875 0 0
0.921875 0 0
0.9375 0 0
0.9375 0 0
0.953125 0 0
0.953125 0 0
0.96875 0 0
0.96875 0 0
0.984375 0 0
0.984375 0 0
1 0 0

CELLS 64 192
2	0	1
2	2	3
2	4	5
2	6	7
2	8	9
2	10	11
2	12	13
2	14	15
2	16	17
2	18	19
2	20	21
2	22	23
2	24	25
2	26	27
2	28	29
2	30	31
2	32	33
2	34	35
2	36	37
2	38	39
2	40	41
2	42	43
2	44	45
2	46	47
2	48	49
2	50	51
2	52	53
2	54	55
2	56	57
2	58	59
2	60	61
2	62	63
2	64	65
2	66	67
2	68	69
2	70	71
2	72	73
2	74	75
2	76	77
2	78	79
2	80	81
2	82	83
2	84	85
2	86	87
2	88	89
2	90	91
2	92	93
2	94	95
2	96	97
2	98	99
2	100	101
2	102	103
2	104	105
2	106	107
2	108	109
2	110	111
2	112	113
2	114	115
2	116	117
2	118	119
2	120	121
2	122	123
2	124	125
2	126	127

CELL_TYPES 64
 3 3 3 3 3 3 3 3 3 3 3 3 3 3 3 3 3 3 3 3 3 3 3 3 3 3 3 3 3 3 3 3 3 3 3 3 3 3 3 3 3 3 3 3 3 3 3 3 3 3 3 3 3 3 3 3 3 3 3 3 3 3 3 3
POINT_DATA 128
VECTORS displacement double
0 0 0
-0.00849281 0 0
-0.00849281 0 0
-0.016716 0 0
-0.016716 0 0
-0.0246696 0 0
-0.0246696 0 0
-0.0323536 0 0
-0.0323536 0 0
-0.0397679 0 0
-0.0397679 0 0
-0.0469127 0 0
-0.0469127 0 0
-0.0537878 0 0
-0.0537878 0 0
-0.0603933 0 0
-0.0603933 0 0
-0.0667293 0 0
-0.0667293 0 0
-0.0727956 0 0
-0.0727956 0 0
-0.0785922 0 0
-0.0785922 0 0
-0.0841193 0 0
-0.0841193 0 0
-0.0893768 0 0
-0.0893768 0 0
-0.0943646 0 0
-0.0943646 0 0
-0.0990829 0 0
-0.0990829 0 0
-0.103531 0 0
-0.103531 0 0
-0.10771 0 0
-0.10771 0 0
-0.11162 0 0
-0.11162 0 0
-0.11526 0 0
-0.11526 0 0
-0.11863 0 0
-0.11863 0 0
-0.12173 0 0
-0.12173 0 0
-0.124561 0 0
-0.124561 0 0
-0.127123 0 0
-0.127123 0 0
-0.129414 0 0
-0.129414 0 0
-0.131436 0 0
-0.131436 0 0
-0.133189 0 0
-0.133189 0 0
-0.134672 0 0
-0.134672 0 0
-0.135885 0 0
-0.135885 0 0
-0.136829 0 0
-0.136829 0 0
-0.137503 0 0
-0.137503 0 0
-0.137907 0 0
-0.137907 0 0
-0.138042 0 0
-0.138042 0 0
-0.137907 0 0
-0.137907 0 0
-0.137503 0 0
-0.137503 0 0
-0.136829 0 0
-0.136829 0 0
-0.135885 0 0
-0.135885 0 0
-0.134672 0 0
-0.134672 0 0
-0.133189 0 0
-0.133189 0 0
-0.131436 0 0
-0.131436 0 0
-0.129414 0 0
-0.129414 0 0
-0.127123 0 0
-0.127123 0 0
-0.124561 0 0
-0.124561 0 0
-0.12173 0 0
-0.12173 0 0
-0.11863 0 0
-0.11863 0 0
-0.11526 0 0
-0.11526 0 0
-0.11162 0 0
-0.11162 0 0
-0.10771 0 0
-0.10771 0 0
-0.103531 0 0
-0.103531 0 0
-0.0990829 0 0
-0.0990829 0 0
-0.0943646 0 0
-0.0943646 0 0
-0.0893768 0 0
-0.0893768 0 0
-0.0841193 0 0
-0.0841193 0 0
-0.0785922 0 0
-0.0785922 0 0
-0.0727956 0 0
-0.0727956 0 0
-0.0667293 0 0
-0.0667293 0 0
-0.0603933 0 0
-0.0603933 0 0
-0.0537878 0 0
-0.0537878 0 0
-0.0469127 0 0
-0.0469127 0 0
-0.0397679 0 0
-0.0397679 0 0
-0.0323536 0 0
-0.0323536 0 0
-0.0246696 0 0
-0.0246696 0 0
-0.016716 0 0
-0.016716 0 0
-0.00849281 0 0
-0.00849281 0 0
0 0 0
VECTORS velocity double
0 0 0
-0.0128232 0 0
-0.0128232 0 0
-0.0252394 0 0
-0.0252394 0 0
-0.0372485 0 0
-0.0372485 0 0
-0.0488504 0 0
-0.0488504 0 0
-0.0600453 0 0
-0.0600453 0 0
-0.0708331 0 0
-0.0708331 0 0
-0.0812138 0 0
-0.0812138 0 0
-0.0911874 0 0
-0.0911874 0 0
-0.100754 0 0
-0.100754 0 0
-0.109913 0 0
-0.109913 0 0
-0.118666 0 0
-0.118666 0 0
-0.127011 0 0
-0.127011 0 0
-0.134949 0 0
-0.134949 0 0
-0.14248 0 0
-0.14248 0 0
-0.149604 0 0
-0.149604 0 0
-0.156321 0 0
-0.156321 0 0
-0.162631 0 0
-0.162631 0 0
-0.168534 0 0
-0.168534 0 0
-0.174029 0 0
-0.174029 0 0
-0.179118 0 0
-0.179118 0 0
-0.183799 0 0
-0.183799 0 0
-0.188074 0 0
-0.188074 0 0
-0.191941 0 0
-0.191941 0 0
-0.195401 0 0
-0.195401 0 0
-0.198454 0 0
-0.198454 0 0
-0.2011 0 0
-0.2011 0 0
-0.203339 0 0
-0.203339 0 0
-0.205171 0 0
-0.205171 0 0
-0.206596 0 0
-0.206596 0 0
-0.207614 0 0
-0.207614 0 0
-0.208224 0 0
-0.208224 0 0
-0.208428 0 0
-0.208428 0 0
-0.208224 0 0
-0.208224 0 0
-0.207614 0 0
-0.207614 0 0
-0.206596 0 0
-0.206596 0 0
-0.205171 0 0
-0.205171 0 0
-0.203339 0 0
-0.203339 0 0
-0.2011 0 0
-0.2011 0 0
-0.198454 0 0
-0.198454 0 0
-0.195401 0 0
-0.195401 0 0
-0.191941 0 0
-0.191941 0 0
-0.188074 0 0
-0.188074 0 0
-0.183799 0 0
-0.183799 0 0
-0.179118 0 0
-0.179118 0 0
-0.174029 0 0
-0.174029 0 0
-0.168534 0 0
-0.168534 0 0
-0.162631 0 0
-0.162631 0 0
-0.156321 0 0
-0.156321 0 0
-0.149604 0 0
-0.149604 0 0
-0.14248 0 0
-0.14248 0 0
-0.134949 0 0
-0.134949 0 0
-0.127011 0 0
-0.127011 0 0
-0.118666 0 0
-0.118666 0 0
-0.109913 0 0
-0.109913 0 0
-0.100754 0 0
-0.100754 0 0
-0.0911874 0 0
-0.0911874 0 0
-0.0812138 0 0
-0.0812138 0 0
-0.0708331 0 0
-0.0708331 0 0
-0.0600453 0 0
-0.0600453 0 0
-0.0488504 0 0
-0.0488504 0 0
-0.0372485 0 0
-0.0372485 0 0
-0.0252394 0 0
-0.0252394 0 0
-0.0128232 0 0
-0.0128232 0 0
0 0 0
