# vtk DataFile Version 3.0
#This file was generated by the deal.II library on 2025/4/1 at 13:01:00
ASCII
DATASET UNSTRUCTURED_GRID

FIELD FieldData 1
TIME 1 1 double
0.65625
POINTS 128 double
0 0 0
0.015625 0 0
0.015625 0 0
0.03125 0 0
0.03125 0 0
0.046875 0 0
0.046875 0 0
0.0625 0 0
0.0625 0 0
0.078125 0 0
0.078125 0 0
0.09375 0 0
0.09375 0 0
0.109375 0 0
0.109375 0 0
0.125 0 0
0.125 0 0
0.140625 0 0
0.140625 0 0
0.15625 0 0
0.15625 0 0
0.171875 0 0
0.171875 0 0
0.1875 0 0
0.1875 0 0
0.203125 0 0
0.203125 0 0
0.21875 0 0
0.21875 0 0
0.234375 0 0
0.234375 0 0
0.25 0 0
0.25 0 0
0.265625 0 0
0.265625 0 0
0.28125 0 0
0.28125 0 0
0.296875 0 0
0.296875 0 0
0.3125 0 0
0.3125 0 0
0.328125 0 0
0.328125 0 0
0.34375 0 0
0.34375 0 0
0.359375 0 0
0.359375 0 0
0.375 0 0
0.375 0 0
0.390625 0 0
0.390625 0 0
0.40625 0 0
0.40625 0 0
0.421875 0 0
0.421875 0 0
0.4375 0 0
0.4375 0 0
0.453125 0 0
0.453125 0 0
0.46875 0 0
0.46875 0 0
0.484375 0 0
0.484375 0 0
0.5 0 0
0.5 0 0
0.515625 0 0
0.515625 0 0
0.53125 0 0
0.53125 0 0
0.546875 0 0
0.546875 0 0
0.5625 0 0
0.5625 0 0
0.578125 0 0
0.578125 0 0
0.59375 0 0
0.59375 0 0
0.609375 0 0
0.609375 0 0
0.625 0 0
0.625 0 0
0.640625 0 0
0.640625 0 0
0.65625 0 0
0.65625 0 0
0.671875 0 0
0.671875 0 0
0.6875 0 0
0.6875 0 0
0.703125 0 0
0.703125 0 0
0.71875 0 0
0.71875 0 0
0.734375 0 0
0.734375 0 0
0.75 0 0
0.75 0 0
0.765625 0 0
0.765625 0 0
0.78125 0 0
0.78125 0 0
0.796875 0 0
0.796875 0 0
0.8125 0 0
0.8125 0 0
0.828125 0 0
0.828125 0 0
0.84375 0 0
0.84375 0 0
0.859375 0 0
0.859375 0 0
0.875 0 0
0.875 0 0
0.890625 0 0
0.890625 0 0
0.90625 0 0
0.90625 0 0
0.921875 0 0
0.921875 0 0
0.9375 0 0
0.9375 0 0
0.953125 0 0
0.953125 0 0
0.96875 0 0
0.96875 0 0
0.984375 0 0
0.984375 0 0
1 0 0

CELLS 64 192
2	0	1
2	2	3
2	4	5
2	6	7
2	8	9
2	10	11
2	12	13
2	14	15
2	16	17
2	18	19
2	20	21
2	22	23
2	24	25
2	26	27
2	28	29
2	30	31
2	32	33
2	34	35
2	36	37
2	38	39
2	40	41
2	42	43
2	44	45
2	46	47
2	48	49
2	50	51
2	52	53
2	54	55
2	56	57
2	58	59
2	60	61
2	62	63
2	64	65
2	66	67
2	68	69
2	70	71
2	72	73
2	74	75
2	76	77
2	78	79
2	80	81
2	82	83
2	84	85
2	86	87
2	88	89
2	90	91
2	92	93
2	94	95
2	96	97
2	98	99
2	100	101
2	102	103
2	104	105
2	106	107
2	108	109
2	110	111
2	112	113
2	114	115
2	116	117
2	118	119
2	120	121
2	122	123
2	124	125
2	126	127

CELL_TYPES 64
 3 3 3 3 3 3 3 3 3 3 3 3 3 3 3 3 3 3 3 3 3 3 3 3 3 3 3 3 3 3 3 3 3 3 3 3 3 3 3 3 3 3 3 3 3 3 3 3 3 3 3 3 3 3 3 3 3 3 3 3 3 3 3 3
POINT_DATA 128
VECTORS displacement double
0 0 0
0.00938452 0 0
0.00938452 0 0
0.0184711 0 0
0.0184711 0 0
0.0272598 0 0
0.0272598 0 0
0.0357506 0 0
0.0357506 0 0
0.0439434 0 0
0.0439434 0 0
0.0518383 0 0
0.0518383 0 0
0.0594353 0 0
0.0594353 0 0
0.0667344 0 0
0.0667344 0 0
0.0737355 0 0
0.0737355 0 0
0.0804388 0 0
0.0804388 0 0
0.0868441 0 0
0.0868441 0 0
0.0929515 0 0
0.0929515 0 0
0.098761 0 0
0.098761 0 0
0.104273 0 0
0.104273 0 0
0.109486 0 0
0.109486 0 0
0.114402 0 0
0.114402 0 0
0.11902 0 0
0.11902 0 0
0.123339 0 0
0.123339 0 0
0.127361 0 0
0.127361 0 0
0.131085 0 0
0.131085 0 0
0.134512 0 0
0.134512 0 0
0.13764 0 0
0.13764 0 0
0.14047 0 0
0.14047 0 0
0.143002 0 0
0.143002 0 0
0.145237 0 0
0.145237 0 0
0.147173 0 0
0.147173 0 0
0.148812 0 0
0.148812 0 0
0.150152 0 0
0.150152 0 0
0.151195 0 0
0.151195 0 0
0.15194 0 0
0.15194 0 0
0.152387 0 0
0.152387 0 0
0.152536 0 0
0.152536 0 0
0.152387 0 0
0.152387 0 0
0.15194 0 0
0.15194 0 0
0.151195 0 0
0.151195 0 0
0.150152 0 0
0.150152 0 0
0.148812 0 0
0.148812 0 0
0.147173 0 0
0.147173 0 0
0.145237 0 0
0.145237 0 0
0.143002 0 0
0.143002 0 0
0.14047 0 0
0.14047 0 0
0.13764 0 0
0.13764 0 0
0.134512 0 0
0.134512 0 0
0.131085 0 0
0.131085 0 0
0.127361 0 0
0.127361 0 0
0.123339 0 0
0.123339 0 0
0.11902 0 0
0.11902 0 0
0.114402 0 0
0.114402 0 0
0.109486 0 0
0.109486 0 0
0.104273 0 0
0.104273 0 0
0.098761 0 0
0.098761 0 0
0.0929515 0 0
0.0929515 0 0
0.0868441 0 0
0.0868441 0 0
0.0804388 0 0
0.0804388 0 0
0.0737355 0 0
0.0737355 0 0
0.0667344 0 0
0.0667344 0 0
0.0594353 0 0
0.0594353 0 0
0.0518383 0 0
0.0518383 0 0
0.0439434 0 0
0.0439434 0 0
0.0357506 0 0
0.0357506 0 0
0.0272598 0 0
0.0272598 0 0
0.0184711 0 0
0.0184711 0 0
0.00938452 0 0
0.00938452 0 0
0 0 0
VECTORS velocity double
0 0 0
0.0121858 0 0
0.0121858 0 0
0.0239848 0 0
0.0239848 0 0
0.035397 0 0
0.035397 0 0
0.0464223 0 0
0.0464223 0 0
0.0570607 0 0
0.0570607 0 0
0.0673123 0 0
0.0673123 0 0
0.077177 0 0
0.077177 0 0
0.0866548 0 0
0.0866548 0 0
0.0957459 0 0
0.0957459 0 0
0.10445 0 0
0.10445 0 0
0.112767 0 0
0.112767 0 0
0.120698 0 0
0.120698 0 0
0.128241 0 0
0.128241 0 0
0.135398 0 0
0.135398 0 0
0.142168 0 0
0.142168 0 0
0.148551 0 0
0.148551 0 0
0.154547 0 0
0.154547 0 0
0.160157 0 0
0.160157 0 0
0.165379 0 0
0.165379 0 0
0.170215 0 0
0.170215 0 0
0.174663 0 0
0.174663 0 0
0.178725 0 0
0.178725 0 0
0.1824 0 0
0.1824 0 0
0.185689 0 0
0.185689 0 0
0.18859 0 0
0.18859 0 0
0.191104 0 0
0.191104 0 0
0.193232 0 0
0.193232 0 0
0.194973 0 0
0.194973 0 0
0.196327 0 0
0.196327 0 0
0.197294 0 0
0.197294 0 0
0.197874 0 0
0.197874 0 0
0.198068 0 0
0.198068 0 0
0.197874 0 0
0.197874 0 0
0.197294 0 0
0.197294 0 0
0.196327 0 0
0.196327 0 0
0.194973 0 0
0.194973 0 0
0.193232 0 0
0.193232 0 0
0.191104 0 0
0.191104 0 0
0.18859 0 0
0.18859 0 0
0.185689 0 0
0.185689 0 0
0.1824 0 0
0.1824 0 0
0.178725 0 0
0.178725 0 0
0.174663 0 0
0.174663 0 0
0.170215 0 0
0.170215 0 0
0.165379 0 0
0.165379 0 0
0.160157 0 0
0.160157 0 0
0.154547 0 0
0.154547 0 0
0.148551 0 0
0.148551 0 0
0.142168 0 0
0.142168 0 0
0.135398 0 0
0.135398 0 0
0.128241 0 0
0.128241 0 0
0.120698 0 0
0.120698 0 0
0.112767 0 0
0.112767 0 0
0.10445 0 0
0.10445 0 0
0.0957459 0 0
0.0957459 0 0
0.0866548 0 0
0.0866548 0 0
0.077177 0 0
0.077177 0 0
0.0673123 0 0
0.0673123 0 0
0.0570607 0 0
0.0570607 0 0
0.0464223 0 0
0.0464223 0 0
0.035397 0 0
0.035397 0 0
0.0239848 0 0
0.0239848 0 0
0.0121858 0 0
0.0121858 0 0
0 0 0
