# vtk DataFile Version 3.0
#This file was generated by the deal.II library on 2025/4/1 at 13:07:53
ASCII
DATASET UNSTRUCTURED_GRID

FIELD FieldData 1
TIME 1 1 double
2.39062
POINTS 512 double
0 0 0
0.00390625 0 0
0.00390625 0 0
0.0078125 0 0
0.0078125 0 0
0.0117188 0 0
0.0117188 0 0
0.015625 0 0
0.015625 0 0
0.0195312 0 0
0.0195312 0 0
0.0234375 0 0
0.0234375 0 0
0.0273438 0 0
0.0273438 0 0
0.03125 0 0
0.03125 0 0
0.0351562 0 0
0.0351562 0 0
0.0390625 0 0
0.0390625 0 0
0.0429688 0 0
0.0429688 0 0
0.046875 0 0
0.046875 0 0
0.0507812 0 0
0.0507812 0 0
0.0546875 0 0
0.0546875 0 0
0.0585938 0 0
0.0585938 0 0
0.0625 0 0
0.0625 0 0
0.0664062 0 0
0.0664062 0 0
0.0703125 0 0
0.0703125 0 0
0.0742188 0 0
0.0742188 0 0
0.078125 0 0
0.078125 0 0
0.0820312 0 0
0.0820312 0 0
0.0859375 0 0
0.0859375 0 0
0.0898438 0 0
0.0898438 0 0
0.09375 0 0
0.09375 0 0
0.0976562 0 0
0.0976562 0 0
0.101562 0 0
0.101562 0 0
0.105469 0 0
0.105469 0 0
0.109375 0 0
0.109375 0 0
0.113281 0 0
0.113281 0 0
0.117188 0 0
0.117188 0 0
0.121094 0 0
0.121094 0 0
0.125 0 0
0.125 0 0
0.128906 0 0
0.128906 0 0
0.132812 0 0
0.132812 0 0
0.136719 0 0
0.136719 0 0
0.140625 0 0
0.140625 0 0
0.144531 0 0
0.144531 0 0
0.148438 0 0
0.148438 0 0
0.152344 0 0
0.152344 0 0
0.15625 0 0
0.15625 0 0
0.160156 0 0
0.160156 0 0
0.164062 0 0
0.164062 0 0
0.167969 0 0
0.167969 0 0
0.171875 0 0
0.171875 0 0
0.175781 0 0
0.175781 0 0
0.179688 0 0
0.179688 0 0
0.183594 0 0
0.183594 0 0
0.1875 0 0
0.1875 0 0
0.191406 0 0
0.191406 0 0
0.195312 0 0
0.195312 0 0
0.199219 0 0
0.199219 0 0
0.203125 0 0
0.203125 0 0
0.207031 0 0
0.207031 0 0
0.210938 0 0
0.210938 0 0
0.214844 0 0
0.214844 0 0
0.21875 0 0
0.21875 0 0
0.222656 0 0
0.222656 0 0
0.226562 0 0
0.226562 0 0
0.230469 0 0
0.230469 0 0
0.234375 0 0
0.234375 0 0
0.238281 0 0
0.238281 0 0
0.242188 0 0
0.242188 0 0
0.246094 0 0
0.246094 0 0
0.25 0 0
0.25 0 0
0.253906 0 0
0.253906 0 0
0.257812 0 0
0.257812 0 0
0.261719 0 0
0.261719 0 0
0.265625 0 0
0.265625 0 0
0.269531 0 0
0.269531 0 0
0.273438 0 0
0.273438 0 0
0.277344 0 0
0.277344 0 0
0.28125 0 0
0.28125 0 0
0.285156 0 0
0.285156 0 0
0.289062 0 0
0.289062 0 0
0.292969 0 0
0.292969 0 0
0.296875 0 0
0.296875 0 0
0.300781 0 0
0.300781 0 0
0.304688 0 0
0.304688 0 0
0.308594 0 0
0.308594 0 0
0.3125 0 0
0.3125 0 0
0.316406 0 0
0.316406 0 0
0.320312 0 0
0.320312 0 0
0.324219 0 0
0.324219 0 0
0.328125 0 0
0.328125 0 0
0.332031 0 0
0.332031 0 0
0.335938 0 0
0.335938 0 0
0.339844 0 0
0.339844 0 0
0.34375 0 0
0.34375 0 0
0.347656 0 0
0.347656 0 0
0.351562 0 0
0.351562 0 0
0.355469 0 0
0.355469 0 0
0.359375 0 0
0.359375 0 0
0.363281 0 0
0.363281 0 0
0.367188 0 0
0.367188 0 0
0.371094 0 0
0.371094 0 0
0.375 0 0
0.375 0 0
0.378906 0 0
0.378906 0 0
0.382812 0 0
0.382812 0 0
0.386719 0 0
0.386719 0 0
0.390625 0 0
0.390625 0 0
0.394531 0 0
0.394531 0 0
0.398438 0 0
0.398438 0 0
0.402344 0 0
0.402344 0 0
0.40625 0 0
0.40625 0 0
0.410156 0 0
0.410156 0 0
0.414062 0 0
0.414062 0 0
0.417969 0 0
0.417969 0 0
0.421875 0 0
0.421875 0 0
0.425781 0 0
0.425781 0 0
0.429688 0 0
0.429688 0 0
0.433594 0 0
0.433594 0 0
0.4375 0 0
0.4375 0 0
0.441406 0 0
0.441406 0 0
0.445312 0 0
0.445312 0 0
0.449219 0 0
0.449219 0 0
0.453125 0 0
0.453125 0 0
0.457031 0 0
0.457031 0 0
0.460938 0 0
0.460938 0 0
0.464844 0 0
0.464844 0 0
0.46875 0 0
0.46875 0 0
0.472656 0 0
0.472656 0 0
0.476562 0 0
0.476562 0 0
0.480469 0 0
0.480469 0 0
0.484375 0 0
0.484375 0 0
0.488281 0 0
0.488281 0 0
0.492188 0 0
0.492188 0 0
0.496094 0 0
0.496094 0 0
0.5 0 0
0.5 0 0
0.503906 0 0
0.503906 0 0
0.507812 0 0
0.507812 0 0
0.511719 0 0
0.511719 0 0
0.515625 0 0
0.515625 0 0
0.519531 0 0
0.519531 0 0
0.523438 0 0
0.523438 0 0
0.527344 0 0
0.527344 0 0
0.53125 0 0
0.53125 0 0
0.535156 0 0
0.535156 0 0
0.539062 0 0
0.539062 0 0
0.542969 0 0
0.542969 0 0
0.546875 0 0
0.546875 0 0
0.550781 0 0
0.550781 0 0
0.554688 0 0
0.554688 0 0
0.558594 0 0
0.558594 0 0
0.5625 0 0
0.5625 0 0
0.566406 0 0
0.566406 0 0
0.570312 0 0
0.570312 0 0
0.574219 0 0
0.574219 0 0
0.578125 0 0
0.578125 0 0
0.582031 0 0
0.582031 0 0
0.585938 0 0
0.585938 0 0
0.589844 0 0
0.589844 0 0
0.59375 0 0
0.59375 0 0
0.597656 0 0
0.597656 0 0
0.601562 0 0
0.601562 0 0
0.605469 0 0
0.605469 0 0
0.609375 0 0
0.609375 0 0
0.613281 0 0
0.613281 0 0
0.617188 0 0
0.617188 0 0
0.621094 0 0
0.621094 0 0
0.625 0 0
0.625 0 0
0.628906 0 0
0.628906 0 0
0.632812 0 0
0.632812 0 0
0.636719 0 0
0.636719 0 0
0.640625 0 0
0.640625 0 0
0.644531 0 0
0.644531 0 0
0.648438 0 0
0.648438 0 0
0.652344 0 0
0.652344 0 0
0.65625 0 0
0.65625 0 0
0.660156 0 0
0.660156 0 0
0.664062 0 0
0.664062 0 0
0.667969 0 0
0.667969 0 0
0.671875 0 0
0.671875 0 0
0.675781 0 0
0.675781 0 0
0.679688 0 0
0.679688 0 0
0.683594 0 0
0.683594 0 0
0.6875 0 0
0.6875 0 0
0.691406 0 0
0.691406 0 0
0.695312 0 0
0.695312 0 0
0.699219 0 0
0.699219 0 0
0.703125 0 0
0.703125 0 0
0.707031 0 0
0.707031 0 0
0.710938 0 0
0.710938 0 0
0.714844 0 0
0.714844 0 0
0.71875 0 0
0.71875 0 0
0.722656 0 0
0.722656 0 0
0.726562 0 0
0.726562 0 0
0.730469 0 0
0.730469 0 0
0.734375 0 0
0.734375 0 0
0.738281 0 0
0.738281 0 0
0.742188 0 0
0.742188 0 0
0.746094 0 0
0.746094 0 0
0.75 0 0
0.75 0 0
0.753906 0 0
0.753906 0 0
0.757812 0 0
0.757812 0 0
0.761719 0 0
0.761719 0 0
0.765625 0 0
0.765625 0 0
0.769531 0 0
0.769531 0 0
0.773438 0 0
0.773438 0 0
0.777344 0 0
0.777344 0 0
0.78125 0 0
0.78125 0 0
0.785156 0 0
0.785156 0 0
0.789062 0 0
0.789062 0 0
0.792969 0 0
0.792969 0 0
0.796875 0 0
0.796875 0 0
0.800781 0 0
0.800781 0 0
0.804688 0 0
0.804688 0 0
0.808594 0 0
0.808594 0 0
0.8125 0 0
0.8125 0 0
0.816406 0 0
0.816406 0 0
0.820312 0 0
0.820312 0 0
0.824219 0 0
0.824219 0 0
0.828125 0 0
0.828125 0 0
0.832031 0 0
0.832031 0 0
0.835938 0 0
0.835938 0 0
0.839844 0 0
0.839844 0 0
0.84375 0 0
0.84375 0 0
0.847656 0 0
0.847656 0 0
0.851562 0 0
0.851562 0 0
0.855469 0 0
0.855469 0 0
0.859375 0 0
0.859375 0 0
0.863281 0 0
0.863281 0 0
0.867188 0 0
0.867188 0 0
0.871094 0 0
0.871094 0 0
0.875 0 0
0.875 0 0
0.878906 0 0
0.878906 0 0
0.882812 0 0
0.882812 0 0
0.886719 0 0
0.886719 0 0
0.890625 0 0
0.890625 0 0
0.894531 0 0
0.894531 0 0
0.898438 0 0
0.898438 0 0
0.902344 0 0
0.902344 0 0
0.90625 0 0
0.90625 0 0
0.910156 0 0
0.910156 0 0
0.914062 0 0
0.914062 0 0
0.917969 0 0
0.917969 0 0
0.921875 0 0
0.921875 0 0
0.925781 0 0
0.925781 0 0
0.929688 0 0
0.929688 0 0
0.933594 0 0
0.933594 0 0
0.9375 0 0
0.9375 0 0
0.941406 0 0
0.941406 0 0
0.945312 0 0
0.945312 0 0
0.949219 0 0
0.949219 0 0
0.953125 0 0
0.953125 0 0
0.957031 0 0
0.957031 0 0
0.960938 0 0
0.960938 0 0
0.964844 0 0
0.964844 0 0
0.96875 0 0
0.96875 0 0
0.972656 0 0
0.972656 0 0
0.976562 0 0
0.976562 0 0
0.980469 0 0
0.980469 0 0
0.984375 0 0
0.984375 0 0
0.988281 0 0
0.988281 0 0
0.992188 0 0
0.992188 0 0
0.996094 0 0
0.996094 0 0
1 0 0

CELLS 256 768
2	0	1
2	2	3
2	4	5
2	6	7
2	8	9
2	10	11
2	12	13
2	14	15
2	16	17
2	18	19
2	20	21
2	22	23
2	24	25
2	26	27
2	28	29
2	30	31
2	32	33
2	34	35
2	36	37
2	38	39
2	40	41
2	42	43
2	44	45
2	46	47
2	48	49
2	50	51
2	52	53
2	54	55
2	56	57
2	58	59
2	60	61
2	62	63
2	64	65
2	66	67
2	68	69
2	70	71
2	72	73
2	74	75
2	76	77
2	78	79
2	80	81
2	82	83
2	84	85
2	86	87
2	88	89
2	90	91
2	92	93
2	94	95
2	96	97
2	98	99
2	100	101
2	102	103
2	104	105
2	106	107
2	108	109
2	110	111
2	112	113
2	114	115
2	116	117
2	118	119
2	120	121
2	122	123
2	124	125
2	126	127
2	128	129
2	130	131
2	132	133
2	134	135
2	136	137
2	138	139
2	140	141
2	142	143
2	144	145
2	146	147
2	148	149
2	150	151
2	152	153
2	154	155
2	156	157
2	158	159
2	160	161
2	162	163
2	164	165
2	166	167
2	168	169
2	170	171
2	172	173
2	174	175
2	176	177
2	178	179
2	180	181
2	182	183
2	184	185
2	186	187
2	188	189
2	190	191
2	192	193
2	194	195
2	196	197
2	198	199
2	200	201
2	202	203
2	204	205
2	206	207
2	208	209
2	210	211
2	212	213
2	214	215
2	216	217
2	218	219
2	220	221
2	222	223
2	224	225
2	226	227
2	228	229
2	230	231
2	232	233
2	234	235
2	236	237
2	238	239
2	240	241
2	242	243
2	244	245
2	246	247
2	248	249
2	250	251
2	252	253
2	254	255
2	256	257
2	258	259
2	260	261
2	262	263
2	264	265
2	266	267
2	268	269
2	270	271
2	272	273
2	274	275
2	276	277
2	278	279
2	280	281
2	282	283
2	284	285
2	286	287
2	288	289
2	290	291
2	292	293
2	294	295
2	296	297
2	298	299
2	300	301
2	302	303
2	304	305
2	306	307
2	308	309
2	310	311
2	312	313
2	314	315
2	316	317
2	318	319
2	320	321
2	322	323
2	324	325
2	326	327
2	328	329
2	330	331
2	332	333
2	334	335
2	336	337
2	338	339
2	340	341
2	342	343
2	344	345
2	346	347
2	348	349
2	350	351
2	352	353
2	354	355
2	356	357
2	358	359
2	360	361
2	362	363
2	364	365
2	366	367
2	368	369
2	370	371
2	372	373
2	374	375
2	376	377
2	378	379
2	380	381
2	382	383
2	384	385
2	386	387
2	388	389
2	390	391
2	392	393
2	394	395
2	396	397
2	398	399
2	400	401
2	402	403
2	404	405
2	406	407
2	408	409
2	410	411
2	412	413
2	414	415
2	416	417
2	418	419
2	420	421
2	422	423
2	424	425
2	426	427
2	428	429
2	430	431
2	432	433
2	434	435
2	436	437
2	438	439
2	440	441
2	442	443
2	444	445
2	446	447
2	448	449
2	450	451
2	452	453
2	454	455
2	456	457
2	458	459
2	460	461
2	462	463
2	464	465
2	466	467
2	468	469
2	470	471
2	472	473
2	474	475
2	476	477
2	478	479
2	480	481
2	482	483
2	484	485
2	486	487
2	488	489
2	490	491
2	492	493
2	494	495
2	496	497
2	498	499
2	500	501
2	502	503
2	504	505
2	506	507
2	508	509
2	510	511

CELL_TYPES 256
 3 3 3 3 3 3 3 3 3 3 3 3 3 3 3 3 3 3 3 3 3 3 3 3 3 3 3 3 3 3 3 3 3 3 3 3 3 3 3 3 3 3 3 3 3 3 3 3 3 3 3 3 3 3 3 3 3 3 3 3 3 3 3 3 3 3 3 3 3 3 3 3 3 3 3 3 3 3 3 3 3 3 3 3 3 3 3 3 3 3 3 3 3 3 3 3 3 3 3 3 3 3 3 3 3 3 3 3 3 3 3 3 3 3 3 3 3 3 3 3 3 3 3 3 3 3 3 3 3 3 3 3 3 3 3 3 3 3 3 3 3 3 3 3 3 3 3 3 3 3 3 3 3 3 3 3 3 3 3 3 3 3 3 3 3 3 3 3 3 3 3 3 3 3 3 3 3 3 3 3 3 3 3 3 3 3 3 3 3 3 3 3 3 3 3 3 3 3 3 3 3 3 3 3 3 3 3 3 3 3 3 3 3 3 3 3 3 3 3 3 3 3 3 3 3 3 3 3 3 3 3 3 3 3 3 3 3 3 3 3 3 3 3 3 3 3 3 3 3 3 3 3 3 3 3 3
POINT_DATA 512
VECTORS displacement double
0 0 0
0.00265501 0 0
0.00265501 0 0
0.00528919 0 0
0.00528919 0 0
0.00790255 0 0
0.00790255 0 0
0.0104951 0 0
0.0104951 0 0
0.0130668 0 0
0.0130668 0 0
0.0156177 0 0
0.0156177 0 0
0.0181478 0 0
0.0181478 0 0
0.020657 0 0
0.020657 0 0
0.0231454 0 0
0.0231454 0 0
0.025613 0 0
0.025613 0 0
0.0280598 0 0
0.0280598 0 0
0.0304857 0 0
0.0304857 0 0
0.0328908 0 0
0.0328908 0 0
0.0352752 0 0
0.0352752 0 0
0.0376386 0 0
0.0376386 0 0
0.0399813 0 0
0.0399813 0 0
0.0423031 0 0
0.0423031 0 0
0.0446041 0 0
0.0446041 0 0
0.0468843 0 0
0.0468843 0 0
0.0491437 0 0
0.0491437 0 0
0.0513822 0 0
0.0513822 0 0
0.0535999 0 0
0.0535999 0 0
0.0557968 0 0
0.0557968 0 0
0.0579728 0 0
0.0579728 0 0
0.0601281 0 0
0.0601281 0 0
0.0622625 0 0
0.0622625 0 0
0.0643761 0 0
0.0643761 0 0
0.0664689 0 0
0.0664689 0 0
0.0685408 0 0
0.0685408 0 0
0.0705919 0 0
0.0705919 0 0
0.0726222 0 0
0.0726222 0 0
0.0746317 0 0
0.0746317 0 0
0.0766204 0 0
0.0766204 0 0
0.0785882 0 0
0.0785882 0 0
0.0805352 0 0
0.0805352 0 0
0.0824614 0 0
0.0824614 0 0
0.0843667 0 0
0.0843667 0 0
0.0862513 0 0
0.0862513 0 0
0.088115 0 0
0.088115 0 0
0.0899579 0 0
0.0899579 0 0
0.0917799 0 0
0.0917799 0 0
0.0935812 0 0
0.0935812 0 0
0.0953616 0 0
0.0953616 0 0
0.0971212 0 0
0.0971212 0 0
0.0988599 0 0
0.0988599 0 0
0.100578 0 0
0.100578 0 0
0.102275 0 0
0.102275 0 0
0.103951 0 0
0.103951 0 0
0.105607 0 0
0.105607 0 0
0.107241 0 0
0.107241 0 0
0.108855 0 0
0.108855 0 0
0.110448 0 0
0.110448 0 0
0.11202 0 0
0.11202 0 0
0.113572 0 0
0.113572 0 0
0.115102 0 0
0.115102 0 0
0.116612 0 0
0.116612 0 0
0.118101 0 0
0.118101 0 0
0.119569 0 0
0.119569 0 0
0.121016 0 0
0.121016 0 0
0.122443 0 0
0.122443 0 0
0.123848 0 0
0.123848 0 0
0.125233 0 0
0.125233 0 0
0.126597 0 0
0.126597 0 0
0.12794 0 0
0.12794 0 0
0.129262 0 0
0.129262 0 0
0.130564 0 0
0.130564 0 0
0.131844 0 0
0.131844 0 0
0.133104 0 0
0.133104 0 0
0.134343 0 0
0.134343 0 0
0.135561 0 0
0.135561 0 0
0.136759 0 0
0.136759 0 0
0.137935 0 0
0.137935 0 0
0.139091 0 0
0.139091 0 0
0.140226 0 0
0.140226 0 0
0.14134 0 0
0.14134 0 0
0.142433 0 0
0.142433 0 0
0.143506 0 0
0.143506 0 0
0.144557 0 0
0.144557 0 0
0.145588 0 0
0.145588 0 0
0.146598 0 0
0.146598 0 0
0.147587 0 0
0.147587 0 0
0.148555 0 0
0.148555 0 0
0.149503 0 0
0.149503 0 0
0.150429 0 0
0.150429 0 0
0.151335 0 0
0.151335 0 0
0.15222 0 0
0.15222 0 0
0.153084 0 0
0.153084 0 0
0.153928 0 0
0.153928 0 0
0.15475 0 0
0.15475 0 0
0.155552 0 0
0.155552 0 0
0.156333 0 0
0.156333 0 0
0.157093 0 0
0.157093 0 0
0.157832 0 0
0.157832 0 0
0.158551 0 0
0.158551 0 0
0.159248 0 0
0.159248 0 0
0.159925 0 0
0.159925 0 0
0.160581 0 0
0.160581 0 0
0.161216 0 0
0.161216 0 0
0.16183 0 0
0.16183 0 0
0.162424 0 0
0.162424 0 0
0.162996 0 0
0.162996 0 0
0.163548 0 0
0.163548 0 0
0.164079 0 0
0.164079 0 0
0.164589 0 0
0.164589 0 0
0.165079 0 0
0.165079 0 0
0.165547 0 0
0.165547 0 0
0.165995 0 0
0.165995 0 0
0.166422 0 0
0.166422 0 0
0.166828 0 0
0.166828 0 0
0.167213 0 0
0.167213 0 0
0.167578 0 0
0.167578 0 0
0.167921 0 0
0.167921 0 0
0.168244 0 0
0.168244 0 0
0.168546 0 0
0.168546 0 0
0.168827 0 0
0.168827 0 0
0.169087 0 0
0.169087 0 0
0.169327 0 0
0.169327 0 0
0.169546 0 0
0.169546 0 0
0.169743 0 0
0.169743 0 0
0.16992 0 0
0.16992 0 0
0.170076 0 0
0.170076 0 0
0.170212 0 0
0.170212 0 0
0.170326 0 0
0.170326 0 0
0.17042 0 0
0.17042 0 0
0.170493 0 0
0.170493 0 0
0.170545 0 0
0.170545 0 0
0.170576 0 0
0.170576 0 0
0.170587 0 0
0.170587 0 0
0.170576 0 0
0.170576 0 0
0.170545 0 0
0.170545 0 0
0.170493 0 0
0.170493 0 0
0.17042 0 0
0.17042 0 0
0.170326 0 0
0.170326 0 0
0.170212 0 0
0.170212 0 0
0.170076 0 0
0.170076 0 0
0.16992 0 0
0.16992 0 0
0.169743 0 0
0.169743 0 0
0.169546 0 0
0.169546 0 0
0.169327 0 0
0.169327 0 0
0.169087 0 0
0.169087 0 0
0.168827 0 0
0.168827 0 0
0.168546 0 0
0.168546 0 0
0.168244 0 0
0.168244 0 0
0.167921 0 0
0.167921 0 0
0.167578 0 0
0.167578 0 0
0.167213 0 0
0.167213 0 0
0.166828 0 0
0.166828 0 0
0.166422 0 0
0.166422 0 0
0.165995 0 0
0.165995 0 0
0.165547 0 0
0.165547 0 0
0.165079 0 0
0.165079 0 0
0.164589 0 0
0.164589 0 0
0.164079 0 0
0.164079 0 0
0.163548 0 0
0.163548 0 0
0.162996 0 0
0.162996 0 0
0.162424 0 0
0.162424 0 0
0.16183 0 0
0.16183 0 0
0.161216 0 0
0.161216 0 0
0.160581 0 0
0.160581 0 0
0.159925 0 0
0.159925 0 0
0.159248 0 0
0.159248 0 0
0.158551 0 0
0.158551 0 0
0.157832 0 0
0.157832 0 0
0.157093 0 0
0.157093 0 0
0.156333 0 0
0.156333 0 0
0.155552 0 0
0.155552 0 0
0.15475 0 0
0.15475 0 0
0.153928 0 0
0.153928 0 0
0.153084 0 0
0.153084 0 0
0.15222 0 0
0.15222 0 0
0.151335 0 0
0.151335 0 0
0.150429 0 0
0.150429 0 0
0.149503 0 0
0.149503 0 0
0.148555 0 0
0.148555 0 0
0.147587 0 0
0.147587 0 0
0.146598 0 0
0.146598 0 0
0.145588 0 0
0.145588 0 0
0.144557 0 0
0.144557 0 0
0.143506 0 0
0.143506 0 0
0.142433 0 0
0.142433 0 0
0.14134 0 0
0.14134 0 0
0.140226 0 0
0.140226 0 0
0.139091 0 0
0.139091 0 0
0.137935 0 0
0.137935 0 0
0.136759 0 0
0.136759 0 0
0.135561 0 0
0.135561 0 0
0.134343 0 0
0.134343 0 0
0.133104 0 0
0.133104 0 0
0.131844 0 0
0.131844 0 0
0.130564 0 0
0.130564 0 0
0.129262 0 0
0.129262 0 0
0.12794 0 0
0.12794 0 0
0.126597 0 0
0.126597 0 0
0.125233 0 0
0.125233 0 0
0.123848 0 0
0.123848 0 0
0.122443 0 0
0.122443 0 0
0.121016 0 0
0.121016 0 0
0.119569 0 0
0.119569 0 0
0.118101 0 0
0.118101 0 0
0.116612 0 0
0.116612 0 0
0.115102 0 0
0.115102 0 0
0.113572 0 0
0.113572 0 0
0.11202 0 0
0.11202 0 0
0.110448 0 0
0.110448 0 0
0.108855 0 0
0.108855 0 0
0.107241 0 0
0.107241 0 0
0.105607 0 0
0.105607 0 0
0.103951 0 0
0.103951 0 0
0.102275 0 0
0.102275 0 0
0.100578 0 0
0.100578 0 0
0.0988599 0 0
0.0988599 0 0
0.0971212 0 0
0.0971212 0 0
0.0953616 0 0
0.0953616 0 0
0.0935812 0 0
0.0935812 0 0
0.0917799 0 0
0.0917799 0 0
0.0899579 0 0
0.0899579 0 0
0.088115 0 0
0.088115 0 0
0.0862513 0 0
0.0862513 0 0
0.0843667 0 0
0.0843667 0 0
0.0824614 0 0
0.0824614 0 0
0.0805352 0 0
0.0805352 0 0
0.0785882 0 0
0.0785882 0 0
0.0766204 0 0
0.0766204 0 0
0.0746317 0 0
0.0746317 0 0
0.0726222 0 0
0.0726222 0 0
0.0705919 0 0
0.0705919 0 0
0.0685408 0 0
0.0685408 0 0
0.0664689 0 0
0.0664689 0 0
0.0643761 0 0
0.0643761 0 0
0.0622625 0 0
0.0622625 0 0
0.0601281 0 0
0.0601281 0 0
0.0579728 0 0
0.0579728 0 0
0.0557968 0 0
0.0557968 0 0
0.0535999 0 0
0.0535999 0 0
0.0513822 0 0
0.0513822 0 0
0.0491437 0 0
0.0491437 0 0
0.0468843 0 0
0.0468843 0 0
0.0446041 0 0
0.0446041 0 0
0.0423031 0 0
0.0423031 0 0
0.0399813 0 0
0.0399813 0 0
0.0376386 0 0
0.0376386 0 0
0.0352752 0 0
0.0352752 0 0
0.0328908 0 0
0.0328908 0 0
0.0304857 0 0
0.0304857 0 0
0.0280598 0 0
0.0280598 0 0
0.025613 0 0
0.025613 0 0
0.0231454 0 0
0.0231454 0 0
0.020657 0 0
0.020657 0 0
0.0181478 0 0
0.0181478 0 0
0.0156177 0 0
0.0156177 0 0
0.0130668 0 0
0.0130668 0 0
0.0104951 0 0
0.0104951 0 0
0.00790255 0 0
0.00790255 0 0
0.00528919 0 0
0.00528919 0 0
0.00265501 0 0
0.00265501 0 0
0 0 0
VECTORS velocity double
0 0 0
-0.00284446 0 0
-0.00284446 0 0
-0.00566662 0 0
-0.00566662 0 0
-0.00846646 0 0
-0.00846646 0 0
-0.011244 0 0
-0.011244 0 0
-0.0139992 0 0
-0.0139992 0 0
-0.0167321 0 0
-0.0167321 0 0
-0.0194427 0 0
-0.0194427 0 0
-0.022131 0 0
-0.022131 0 0
-0.024797 0 0
-0.024797 0 0
-0.0274407 0 0
-0.0274407 0 0
-0.0300621 0 0
-0.0300621 0 0
-0.0326611 0 0
-0.0326611 0 0
-0.0352379 0 0
-0.0352379 0 0
-0.0377923 0 0
-0.0377923 0 0
-0.0403245 0 0
-0.0403245 0 0
-0.0428343 0 0
-0.0428343 0 0
-0.0453218 0 0
-0.0453218 0 0
-0.047787 0 0
-0.047787 0 0
-0.0502299 0 0
-0.0502299 0 0
-0.0526505 0 0
-0.0526505 0 0
-0.0550488 0 0
-0.0550488 0 0
-0.0574247 0 0
-0.0574247 0 0
-0.0597784 0 0
-0.0597784 0 0
-0.0621097 0 0
-0.0621097 0 0
-0.0644188 0 0
-0.0644188 0 0
-0.0667055 0 0
-0.0667055 0 0
-0.0689699 0 0
-0.0689699 0 0
-0.071212 0 0
-0.071212 0 0
-0.0734318 0 0
-0.0734318 0 0
-0.0756293 0 0
-0.0756293 0 0
-0.0778045 0 0
-0.0778045 0 0
-0.0799574 0 0
-0.0799574 0 0
-0.0820879 0 0
-0.0820879 0 0
-0.0841962 0 0
-0.0841962 0 0
-0.0862821 0 0
-0.0862821 0 0
-0.0883457 0 0
-0.0883457 0 0
-0.0903871 0 0
-0.0903871 0 0
-0.0924061 0 0
-0.0924061 0 0
-0.0944028 0 0
-0.0944028 0 0
-0.0963772 0 0
-0.0963772 0 0
-0.0983293 0 0
-0.0983293 0 0
-0.100259 0 0
-0.100259 0 0
-0.102167 0 0
-0.102167 0 0
-0.104052 0 0
-0.104052 0 0
-0.105915 0 0
-0.105915 0 0
-0.107755 0 0
-0.107755 0 0
-0.109573 0 0
-0.109573 0 0
-0.111369 0 0
-0.111369 0 0
-0.113143 0 0
-0.113143 0 0
-0.114894 0 0
-0.114894 0 0
-0.116623 0 0
-0.116623 0 0
-0.11833 0 0
-0.11833 0 0
-0.120014 0 0
-0.120014 0 0
-0.121676 0 0
-0.121676 0 0
-0.123316 0 0
-0.123316 0 0
-0.124933 0 0
-0.124933 0 0
-0.126529 0 0
-0.126529 0 0
-0.128101 0 0
-0.128101 0 0
-0.129652 0 0
-0.129652 0 0
-0.13118 0 0
-0.13118 0 0
-0.132686 0 0
-0.132686 0 0
-0.13417 0 0
-0.13417 0 0
-0.135631 0 0
-0.135631 0 0
-0.13707 0 0
-0.13707 0 0
-0.138486 0 0
-0.138486 0 0
-0.139881 0 0
-0.139881 0 0
-0.141253 0 0
-0.141253 0 0
-0.142603 0 0
-0.142603 0 0
-0.14393 0 0
-0.14393 0 0
-0.145235 0 0
-0.145235 0 0
-0.146518 0 0
-0.146518 0 0
-0.147778 0 0
-0.147778 0 0
-0.149017 0 0
-0.149017 0 0
-0.150232 0 0
-0.150232 0 0
-0.151426 0 0
-0.151426 0 0
-0.152597 0 0
-0.152597 0 0
-0.153746 0 0
-0.153746 0 0
-0.154873 0 0
-0.154873 0 0
-0.155977 0 0
-0.155977 0 0
-0.157059 0 0
-0.157059 0 0
-0.158119 0 0
-0.158119 0 0
-0.159156 0 0
-0.159156 0 0
-0.160171 0 0
-0.160171 0 0
-0.161164 0 0
-0.161164 0 0
-0.162135 0 0
-0.162135 0 0
-0.163083 0 0
-0.163083 0 0
-0.164009 0 0
-0.164009 0 0
-0.164912 0 0
-0.164912 0 0
-0.165793 0 0
-0.165793 0 0
-0.166652 0 0
-0.166652 0 0
-0.167489 0 0
-0.167489 0 0
-0.168303 0 0
-0.168303 0 0
-0.169095 0 0
-0.169095 0 0
-0.169865 0 0
-0.169865 0 0
-0.170612 0 0
-0.170612 0 0
-0.171337 0 0
-0.171337 0 0
-0.17204 0 0
-0.17204 0 0
-0.172721 0 0
-0.172721 0 0
-0.173379 0 0
-0.173379 0 0
-0.174015 0 0
-0.174015 0 0
-0.174628 0 0
-0.174628 0 0
-0.175219 0 0
-0.175219 0 0
-0.175788 0 0
-0.175788 0 0
-0.176335 0 0
-0.176335 0 0
-0.176859 0 0
-0.176859 0 0
-0.177361 0 0
-0.177361 0 0
-0.177841 0 0
-0.177841 0 0
-0.178298 0 0
-0.178298 0 0
-0.178733 0 0
-0.178733 0 0
-0.179146 0 0
-0.179146 0 0
-0.179536 0 0
-0.179536 0 0
-0.179904 0 0
-0.179904 0 0
-0.18025 0 0
-0.18025 0 0
-0.180574 0 0
-0.180574 0 0
-0.180875 0 0
-0.180875 0 0
-0.181154 0 0
-0.181154 0 0
-0.18141 0 0
-0.18141 0 0
-0.181645 0 0
-0.181645 0 0
-0.181856 0 0
-0.181856 0 0
-0.182046 0 0
-0.182046 0 0
-0.182213 0 0
-0.182213 0 0
-0.182358 0 0
-0.182358 0 0
-0.182481 0 0
-0.182481 0 0
-0.182582 0 0
-0.182582 0 0
-0.18266 0 0
-0.18266 0 0
-0.182715 0 0
-0.182715 0 0
-0.182749 0 0
-0.182749 0 0
-0.18276 0 0
-0.18276 0 0
-0.182749 0 0
-0.182749 0 0
-0.182715 0 0
-0.182715 0 0
-0.18266 0 0
-0.18266 0 0
-0.182582 0 0
-0.182582 0 0
-0.182481 0 0
-0.182481 0 0
-0.182358 0 0
-0.182358 0 0
-0.182213 0 0
-0.182213 0 0
-0.182046 0 0
-0.182046 0 0
-0.181856 0 0
-0.181856 0 0
-0.181645 0 0
-0.181645 0 0
-0.18141 0 0
-0.18141 0 0
-0.181154 0 0
-0.181154 0 0
-0.180875 0 0
-0.180875 0 0
-0.180574 0 0
-0.180574 0 0
-0.18025 0 0
-0.18025 0 0
-0.179904 0 0
-0.179904 0 0
-0.179536 0 0
-0.179536 0 0
-0.179146 0 0
-0.179146 0 0
-0.178733 0 0
-0.178733 0 0
-0.178298 0 0
-0.178298 0 0
-0.177841 0 0
-0.177841 0 0
-0.177361 0 0
-0.177361 0 0
-0.176859 0 0
-0.176859 0 0
-0.176335 0 0
-0.176335 0 0
-0.175788 0 0
-0.175788 0 0
-0.175219 0 0
-0.175219 0 0
-0.174628 0 0
-0.174628 0 0
-0.174015 0 0
-0.174015 0 0
-0.173379 0 0
-0.173379 0 0
-0.172721 0 0
-0.172721 0 0
-0.17204 0 0
-0.17204 0 0
-0.171337 0 0
-0.171337 0 0
-0.170612 0 0
-0.170612 0 0
-0.169865 0 0
-0.169865 0 0
-0.169095 0 0
-0.169095 0 0
-0.168303 0 0
-0.168303 0 0
-0.167489 0 0
-0.167489 0 0
-0.166652 0 0
-0.166652 0 0
-0.165793 0 0
-0.165793 0 0
-0.164912 0 0
-0.164912 0 0
-0.164009 0 0
-0.164009 0 0
-0.163083 0 0
-0.163083 0 0
-0.162135 0 0
-0.162135 0 0
-0.161164 0 0
-0.161164 0 0
-0.160171 0 0
-0.160171 0 0
-0.159156 0 0
-0.159156 0 0
-0.158119 0 0
-0.158119 0 0
-0.157059 0 0
-0.157059 0 0
-0.155977 0 0
-0.155977 0 0
-0.154873 0 0
-0.154873 0 0
-0.153746 0 0
-0.153746 0 0
-0.152597 0 0
-0.152597 0 0
-0.151426 0 0
-0.151426 0 0
-0.150232 0 0
-0.150232 0 0
-0.149017 0 0
-0.149017 0 0
-0.147778 0 0
-0.147778 0 0
-0.146518 0 0
-0.146518 0 0
-0.145235 0 0
-0.145235 0 0
-0.14393 0 0
-0.14393 0 0
-0.142603 0 0
-0.142603 0 0
-0.141253 0 0
-0.141253 0 0
-0.139881 0 0
-0.139881 0 0
-0.138486 0 0
-0.138486 0 0
-0.13707 0 0
-0.13707 0 0
-0.135631 0 0
-0.135631 0 0
-0.13417 0 0
-0.13417 0 0
-0.132686 0 0
-0.132686 0 0
-0.13118 0 0
-0.13118 0 0
-0.129652 0 0
-0.129652 0 0
-0.128101 0 0
-0.128101 0 0
-0.126529 0 0
-0.126529 0 0
-0.124933 0 0
-0.124933 0 0
-0.123316 0 0
-0.123316 0 0
-0.121676 0 0
-0.121676 0 0
-0.120014 0 0
-0.120014 0 0
-0.11833 0 0
-0.11833 0 0
-0.116623 0 0
-0.116623 0 0
-0.114894 0 0
-0.114894 0 0
-0.113143 0 0
-0.113143 0 0
-0.111369 0 0
-0.111369 0 0
-0.109573 0 0
-0.109573 0 0
-0.107755 0 0
-0.107755 0 0
-0.105915 0 0
-0.105915 0 0
-0.104052 0 0
-0.104052 0 0
-0.102167 0 0
-0.102167 0 0
-0.100259 0 0
-0.100259 0 0
-0.0983293 0 0
-0.0983293 0 0
-0.0963772 0 0
-0.0963772 0 0
-0.0944028 0 0
-0.0944028 0 0
-0.0924061 0 0
-0.0924061 0 0
-0.0903871 0 0
-0.0903871 0 0
-0.0883457 0 0
-0.0883457 0 0
-0.0862821 0 0
-0.0862821 0 0
-0.0841962 0 0
-0.0841962 0 0
-0.0820879 0 0
-0.0820879 0 0
-0.0799574 0 0
-0.0799574 0 0
-0.0778045 0 0
-0.0778045 0 0
-0.0756293 0 0
-0.0756293 0 0
-0.0734318 0 0
-0.0734318 0 0
-0.071212 0 0
-0.071212 0 0
-0.0689699 0 0
-0.0689699 0 0
-0.0667055 0 0
-0.0667055 0 0
-0.0644188 0 0
-0.0644188 0 0
-0.0621097 0 0
-0.0621097 0 0
-0.0597784 0 0
-0.0597784 0 0
-0.0574247 0 0
-0.0574247 0 0
-0.0550488 0 0
-0.0550488 0 0
-0.0526505 0 0
-0.0526505 0 0
-0.0502299 0 0
-0.0502299 0 0
-0.047787 0 0
-0.047787 0 0
-0.0453218 0 0
-0.0453218 0 0
-0.0428343 0 0
-0.0428343 0 0
-0.0403245 0 0
-0.0403245 0 0
-0.0377923 0 0
-0.0377923 0 0
-0.0352379 0 0
-0.0352379 0 0
-0.0326611 0 0
-0.0326611 0 0
-0.0300621 0 0
-0.0300621 0 0
-0.0274407 0 0
-0.0274407 0 0
-0.024797 0 0
-0.024797 0 0
-0.022131 0 0
-0.022131 0 0
-0.0194427 0 0
-0.0194427 0 0
-0.0167321 0 0
-0.0167321 0 0
-0.0139992 0 0
-0.0139992 0 0
-0.011244 0 0
-0.011244 0 0
-0.00846646 0 0
-0.00846646 0 0
-0.00566662 0 0
-0.00566662 0 0
-0.00284446 0 0
-0.00284446 0 0
0 0 0
