# vtk DataFile Version 3.0
#This file was generated by the deal.II library on 2025/4/1 at 13:07:37
ASCII
DATASET UNSTRUCTURED_GRID

FIELD FieldData 1
TIME 1 1 double
2.16406
POINTS 512 double
0 0 0
0.00390625 0 0
0.00390625 0 0
0.0078125 0 0
0.0078125 0 0
0.0117188 0 0
0.0117188 0 0
0.015625 0 0
0.015625 0 0
0.0195312 0 0
0.0195312 0 0
0.0234375 0 0
0.0234375 0 0
0.0273438 0 0
0.0273438 0 0
0.03125 0 0
0.03125 0 0
0.0351562 0 0
0.0351562 0 0
0.0390625 0 0
0.0390625 0 0
0.0429688 0 0
0.0429688 0 0
0.046875 0 0
0.046875 0 0
0.0507812 0 0
0.0507812 0 0
0.0546875 0 0
0.0546875 0 0
0.0585938 0 0
0.0585938 0 0
0.0625 0 0
0.0625 0 0
0.0664062 0 0
0.0664062 0 0
0.0703125 0 0
0.0703125 0 0
0.0742188 0 0
0.0742188 0 0
0.078125 0 0
0.078125 0 0
0.0820312 0 0
0.0820312 0 0
0.0859375 0 0
0.0859375 0 0
0.0898438 0 0
0.0898438 0 0
0.09375 0 0
0.09375 0 0
0.0976562 0 0
0.0976562 0 0
0.101562 0 0
0.101562 0 0
0.105469 0 0
0.105469 0 0
0.109375 0 0
0.109375 0 0
0.113281 0 0
0.113281 0 0
0.117188 0 0
0.117188 0 0
0.121094 0 0
0.121094 0 0
0.125 0 0
0.125 0 0
0.128906 0 0
0.128906 0 0
0.132812 0 0
0.132812 0 0
0.136719 0 0
0.136719 0 0
0.140625 0 0
0.140625 0 0
0.144531 0 0
0.144531 0 0
0.148438 0 0
0.148438 0 0
0.152344 0 0
0.152344 0 0
0.15625 0 0
0.15625 0 0
0.160156 0 0
0.160156 0 0
0.164062 0 0
0.164062 0 0
0.167969 0 0
0.167969 0 0
0.171875 0 0
0.171875 0 0
0.175781 0 0
0.175781 0 0
0.179688 0 0
0.179688 0 0
0.183594 0 0
0.183594 0 0
0.1875 0 0
0.1875 0 0
0.191406 0 0
0.191406 0 0
0.195312 0 0
0.195312 0 0
0.199219 0 0
0.199219 0 0
0.203125 0 0
0.203125 0 0
0.207031 0 0
0.207031 0 0
0.210938 0 0
0.210938 0 0
0.214844 0 0
0.214844 0 0
0.21875 0 0
0.21875 0 0
0.222656 0 0
0.222656 0 0
0.226562 0 0
0.226562 0 0
0.230469 0 0
0.230469 0 0
0.234375 0 0
0.234375 0 0
0.238281 0 0
0.238281 0 0
0.242188 0 0
0.242188 0 0
0.246094 0 0
0.246094 0 0
0.25 0 0
0.25 0 0
0.253906 0 0
0.253906 0 0
0.257812 0 0
0.257812 0 0
0.261719 0 0
0.261719 0 0
0.265625 0 0
0.265625 0 0
0.269531 0 0
0.269531 0 0
0.273438 0 0
0.273438 0 0
0.277344 0 0
0.277344 0 0
0.28125 0 0
0.28125 0 0
0.285156 0 0
0.285156 0 0
0.289062 0 0
0.289062 0 0
0.292969 0 0
0.292969 0 0
0.296875 0 0
0.296875 0 0
0.300781 0 0
0.300781 0 0
0.304688 0 0
0.304688 0 0
0.308594 0 0
0.308594 0 0
0.3125 0 0
0.3125 0 0
0.316406 0 0
0.316406 0 0
0.320312 0 0
0.320312 0 0
0.324219 0 0
0.324219 0 0
0.328125 0 0
0.328125 0 0
0.332031 0 0
0.332031 0 0
0.335938 0 0
0.335938 0 0
0.339844 0 0
0.339844 0 0
0.34375 0 0
0.34375 0 0
0.347656 0 0
0.347656 0 0
0.351562 0 0
0.351562 0 0
0.355469 0 0
0.355469 0 0
0.359375 0 0
0.359375 0 0
0.363281 0 0
0.363281 0 0
0.367188 0 0
0.367188 0 0
0.371094 0 0
0.371094 0 0
0.375 0 0
0.375 0 0
0.378906 0 0
0.378906 0 0
0.382812 0 0
0.382812 0 0
0.386719 0 0
0.386719 0 0
0.390625 0 0
0.390625 0 0
0.394531 0 0
0.394531 0 0
0.398438 0 0
0.398438 0 0
0.402344 0 0
0.402344 0 0
0.40625 0 0
0.40625 0 0
0.410156 0 0
0.410156 0 0
0.414062 0 0
0.414062 0 0
0.417969 0 0
0.417969 0 0
0.421875 0 0
0.421875 0 0
0.425781 0 0
0.425781 0 0
0.429688 0 0
0.429688 0 0
0.433594 0 0
0.433594 0 0
0.4375 0 0
0.4375 0 0
0.441406 0 0
0.441406 0 0
0.445312 0 0
0.445312 0 0
0.449219 0 0
0.449219 0 0
0.453125 0 0
0.453125 0 0
0.457031 0 0
0.457031 0 0
0.460938 0 0
0.460938 0 0
0.464844 0 0
0.464844 0 0
0.46875 0 0
0.46875 0 0
0.472656 0 0
0.472656 0 0
0.476562 0 0
0.476562 0 0
0.480469 0 0
0.480469 0 0
0.484375 0 0
0.484375 0 0
0.488281 0 0
0.488281 0 0
0.492188 0 0
0.492188 0 0
0.496094 0 0
0.496094 0 0
0.5 0 0
0.5 0 0
0.503906 0 0
0.503906 0 0
0.507812 0 0
0.507812 0 0
0.511719 0 0
0.511719 0 0
0.515625 0 0
0.515625 0 0
0.519531 0 0
0.519531 0 0
0.523438 0 0
0.523438 0 0
0.527344 0 0
0.527344 0 0
0.53125 0 0
0.53125 0 0
0.535156 0 0
0.535156 0 0
0.539062 0 0
0.539062 0 0
0.542969 0 0
0.542969 0 0
0.546875 0 0
0.546875 0 0
0.550781 0 0
0.550781 0 0
0.554688 0 0
0.554688 0 0
0.558594 0 0
0.558594 0 0
0.5625 0 0
0.5625 0 0
0.566406 0 0
0.566406 0 0
0.570312 0 0
0.570312 0 0
0.574219 0 0
0.574219 0 0
0.578125 0 0
0.578125 0 0
0.582031 0 0
0.582031 0 0
0.585938 0 0
0.585938 0 0
0.589844 0 0
0.589844 0 0
0.59375 0 0
0.59375 0 0
0.597656 0 0
0.597656 0 0
0.601562 0 0
0.601562 0 0
0.605469 0 0
0.605469 0 0
0.609375 0 0
0.609375 0 0
0.613281 0 0
0.613281 0 0
0.617188 0 0
0.617188 0 0
0.621094 0 0
0.621094 0 0
0.625 0 0
0.625 0 0
0.628906 0 0
0.628906 0 0
0.632812 0 0
0.632812 0 0
0.636719 0 0
0.636719 0 0
0.640625 0 0
0.640625 0 0
0.644531 0 0
0.644531 0 0
0.648438 0 0
0.648438 0 0
0.652344 0 0
0.652344 0 0
0.65625 0 0
0.65625 0 0
0.660156 0 0
0.660156 0 0
0.664062 0 0
0.664062 0 0
0.667969 0 0
0.667969 0 0
0.671875 0 0
0.671875 0 0
0.675781 0 0
0.675781 0 0
0.679688 0 0
0.679688 0 0
0.683594 0 0
0.683594 0 0
0.6875 0 0
0.6875 0 0
0.691406 0 0
0.691406 0 0
0.695312 0 0
0.695312 0 0
0.699219 0 0
0.699219 0 0
0.703125 0 0
0.703125 0 0
0.707031 0 0
0.707031 0 0
0.710938 0 0
0.710938 0 0
0.714844 0 0
0.714844 0 0
0.71875 0 0
0.71875 0 0
0.722656 0 0
0.722656 0 0
0.726562 0 0
0.726562 0 0
0.730469 0 0
0.730469 0 0
0.734375 0 0
0.734375 0 0
0.738281 0 0
0.738281 0 0
0.742188 0 0
0.742188 0 0
0.746094 0 0
0.746094 0 0
0.75 0 0
0.75 0 0
0.753906 0 0
0.753906 0 0
0.757812 0 0
0.757812 0 0
0.761719 0 0
0.761719 0 0
0.765625 0 0
0.765625 0 0
0.769531 0 0
0.769531 0 0
0.773438 0 0
0.773438 0 0
0.777344 0 0
0.777344 0 0
0.78125 0 0
0.78125 0 0
0.785156 0 0
0.785156 0 0
0.789062 0 0
0.789062 0 0
0.792969 0 0
0.792969 0 0
0.796875 0 0
0.796875 0 0
0.800781 0 0
0.800781 0 0
0.804688 0 0
0.804688 0 0
0.808594 0 0
0.808594 0 0
0.8125 0 0
0.8125 0 0
0.816406 0 0
0.816406 0 0
0.820312 0 0
0.820312 0 0
0.824219 0 0
0.824219 0 0
0.828125 0 0
0.828125 0 0
0.832031 0 0
0.832031 0 0
0.835938 0 0
0.835938 0 0
0.839844 0 0
0.839844 0 0
0.84375 0 0
0.84375 0 0
0.847656 0 0
0.847656 0 0
0.851562 0 0
0.851562 0 0
0.855469 0 0
0.855469 0 0
0.859375 0 0
0.859375 0 0
0.863281 0 0
0.863281 0 0
0.867188 0 0
0.867188 0 0
0.871094 0 0
0.871094 0 0
0.875 0 0
0.875 0 0
0.878906 0 0
0.878906 0 0
0.882812 0 0
0.882812 0 0
0.886719 0 0
0.886719 0 0
0.890625 0 0
0.890625 0 0
0.894531 0 0
0.894531 0 0
0.898438 0 0
0.898438 0 0
0.902344 0 0
0.902344 0 0
0.90625 0 0
0.90625 0 0
0.910156 0 0
0.910156 0 0
0.914062 0 0
0.914062 0 0
0.917969 0 0
0.917969 0 0
0.921875 0 0
0.921875 0 0
0.925781 0 0
0.925781 0 0
0.929688 0 0
0.929688 0 0
0.933594 0 0
0.933594 0 0
0.9375 0 0
0.9375 0 0
0.941406 0 0
0.941406 0 0
0.945312 0 0
0.945312 0 0
0.949219 0 0
0.949219 0 0
0.953125 0 0
0.953125 0 0
0.957031 0 0
0.957031 0 0
0.960938 0 0
0.960938 0 0
0.964844 0 0
0.964844 0 0
0.96875 0 0
0.96875 0 0
0.972656 0 0
0.972656 0 0
0.976562 0 0
0.976562 0 0
0.980469 0 0
0.980469 0 0
0.984375 0 0
0.984375 0 0
0.988281 0 0
0.988281 0 0
0.992188 0 0
0.992188 0 0
0.996094 0 0
0.996094 0 0
1 0 0

CELLS 256 768
2	0	1
2	2	3
2	4	5
2	6	7
2	8	9
2	10	11
2	12	13
2	14	15
2	16	17
2	18	19
2	20	21
2	22	23
2	24	25
2	26	27
2	28	29
2	30	31
2	32	33
2	34	35
2	36	37
2	38	39
2	40	41
2	42	43
2	44	45
2	46	47
2	48	49
2	50	51
2	52	53
2	54	55
2	56	57
2	58	59
2	60	61
2	62	63
2	64	65
2	66	67
2	68	69
2	70	71
2	72	73
2	74	75
2	76	77
2	78	79
2	80	81
2	82	83
2	84	85
2	86	87
2	88	89
2	90	91
2	92	93
2	94	95
2	96	97
2	98	99
2	100	101
2	102	103
2	104	105
2	106	107
2	108	109
2	110	111
2	112	113
2	114	115
2	116	117
2	118	119
2	120	121
2	122	123
2	124	125
2	126	127
2	128	129
2	130	131
2	132	133
2	134	135
2	136	137
2	138	139
2	140	141
2	142	143
2	144	145
2	146	147
2	148	149
2	150	151
2	152	153
2	154	155
2	156	157
2	158	159
2	160	161
2	162	163
2	164	165
2	166	167
2	168	169
2	170	171
2	172	173
2	174	175
2	176	177
2	178	179
2	180	181
2	182	183
2	184	185
2	186	187
2	188	189
2	190	191
2	192	193
2	194	195
2	196	197
2	198	199
2	200	201
2	202	203
2	204	205
2	206	207
2	208	209
2	210	211
2	212	213
2	214	215
2	216	217
2	218	219
2	220	221
2	222	223
2	224	225
2	226	227
2	228	229
2	230	231
2	232	233
2	234	235
2	236	237
2	238	239
2	240	241
2	242	243
2	244	245
2	246	247
2	248	249
2	250	251
2	252	253
2	254	255
2	256	257
2	258	259
2	260	261
2	262	263
2	264	265
2	266	267
2	268	269
2	270	271
2	272	273
2	274	275
2	276	277
2	278	279
2	280	281
2	282	283
2	284	285
2	286	287
2	288	289
2	290	291
2	292	293
2	294	295
2	296	297
2	298	299
2	300	301
2	302	303
2	304	305
2	306	307
2	308	309
2	310	311
2	312	313
2	314	315
2	316	317
2	318	319
2	320	321
2	322	323
2	324	325
2	326	327
2	328	329
2	330	331
2	332	333
2	334	335
2	336	337
2	338	339
2	340	341
2	342	343
2	344	345
2	346	347
2	348	349
2	350	351
2	352	353
2	354	355
2	356	357
2	358	359
2	360	361
2	362	363
2	364	365
2	366	367
2	368	369
2	370	371
2	372	373
2	374	375
2	376	377
2	378	379
2	380	381
2	382	383
2	384	385
2	386	387
2	388	389
2	390	391
2	392	393
2	394	395
2	396	397
2	398	399
2	400	401
2	402	403
2	404	405
2	406	407
2	408	409
2	410	411
2	412	413
2	414	415
2	416	417
2	418	419
2	420	421
2	422	423
2	424	425
2	426	427
2	428	429
2	430	431
2	432	433
2	434	435
2	436	437
2	438	439
2	440	441
2	442	443
2	444	445
2	446	447
2	448	449
2	450	451
2	452	453
2	454	455
2	456	457
2	458	459
2	460	461
2	462	463
2	464	465
2	466	467
2	468	469
2	470	471
2	472	473
2	474	475
2	476	477
2	478	479
2	480	481
2	482	483
2	484	485
2	486	487
2	488	489
2	490	491
2	492	493
2	494	495
2	496	497
2	498	499
2	500	501
2	502	503
2	504	505
2	506	507
2	508	509
2	510	511

CELL_TYPES 256
 3 3 3 3 3 3 3 3 3 3 3 3 3 3 3 3 3 3 3 3 3 3 3 3 3 3 3 3 3 3 3 3 3 3 3 3 3 3 3 3 3 3 3 3 3 3 3 3 3 3 3 3 3 3 3 3 3 3 3 3 3 3 3 3 3 3 3 3 3 3 3 3 3 3 3 3 3 3 3 3 3 3 3 3 3 3 3 3 3 3 3 3 3 3 3 3 3 3 3 3 3 3 3 3 3 3 3 3 3 3 3 3 3 3 3 3 3 3 3 3 3 3 3 3 3 3 3 3 3 3 3 3 3 3 3 3 3 3 3 3 3 3 3 3 3 3 3 3 3 3 3 3 3 3 3 3 3 3 3 3 3 3 3 3 3 3 3 3 3 3 3 3 3 3 3 3 3 3 3 3 3 3 3 3 3 3 3 3 3 3 3 3 3 3 3 3 3 3 3 3 3 3 3 3 3 3 3 3 3 3 3 3 3 3 3 3 3 3 3 3 3 3 3 3 3 3 3 3 3 3 3 3 3 3 3 3 3 3 3 3 3 3 3 3 3 3 3 3 3 3 3 3 3 3 3 3
POINT_DATA 512
VECTORS displacement double
0 0 0
0.0032261 0 0
0.0032261 0 0
0.00642691 0 0
0.00642691 0 0
0.00960241 0 0
0.00960241 0 0
0.0127526 0 0
0.0127526 0 0
0.0158775 0 0
0.0158775 0 0
0.0189771 0 0
0.0189771 0 0
0.0220514 0 0
0.0220514 0 0
0.0251004 0 0
0.0251004 0 0
0.028124 0 0
0.028124 0 0
0.0311224 0 0
0.0311224 0 0
0.0340955 0 0
0.0340955 0 0
0.0370433 0 0
0.0370433 0 0
0.0399657 0 0
0.0399657 0 0
0.0428629 0 0
0.0428629 0 0
0.0457348 0 0
0.0457348 0 0
0.0485813 0 0
0.0485813 0 0
0.0514026 0 0
0.0514026 0 0
0.0541986 0 0
0.0541986 0 0
0.0569692 0 0
0.0569692 0 0
0.0597146 0 0
0.0597146 0 0
0.0624346 0 0
0.0624346 0 0
0.0651294 0 0
0.0651294 0 0
0.0677988 0 0
0.0677988 0 0
0.0704429 0 0
0.0704429 0 0
0.0730618 0 0
0.0730618 0 0
0.0756553 0 0
0.0756553 0 0
0.0782235 0 0
0.0782235 0 0
0.0807665 0 0
0.0807665 0 0
0.0832841 0 0
0.0832841 0 0
0.0857764 0 0
0.0857764 0 0
0.0882434 0 0
0.0882434 0 0
0.0906852 0 0
0.0906852 0 0
0.0931016 0 0
0.0931016 0 0
0.0954927 0 0
0.0954927 0 0
0.0978585 0 0
0.0978585 0 0
0.100199 0 0
0.100199 0 0
0.102514 0 0
0.102514 0 0
0.104804 0 0
0.104804 0 0
0.107069 0 0
0.107069 0 0
0.109308 0 0
0.109308 0 0
0.111522 0 0
0.111522 0 0
0.113711 0 0
0.113711 0 0
0.115874 0 0
0.115874 0 0
0.118012 0 0
0.118012 0 0
0.120125 0 0
0.120125 0 0
0.122212 0 0
0.122212 0 0
0.124275 0 0
0.124275 0 0
0.126311 0 0
0.126311 0 0
0.128323 0 0
0.128323 0 0
0.130309 0 0
0.130309 0 0
0.13227 0 0
0.13227 0 0
0.134206 0 0
0.134206 0 0
0.136116 0 0
0.136116 0 0
0.138001 0 0
0.138001 0 0
0.139861 0 0
0.139861 0 0
0.141696 0 0
0.141696 0 0
0.143505 0 0
0.143505 0 0
0.145289 0 0
0.145289 0 0
0.147047 0 0
0.147047 0 0
0.14878 0 0
0.14878 0 0
0.150488 0 0
0.150488 0 0
0.152171 0 0
0.152171 0 0
0.153828 0 0
0.153828 0 0
0.15546 0 0
0.15546 0 0
0.157067 0 0
0.157067 0 0
0.158648 0 0
0.158648 0 0
0.160205 0 0
0.160205 0 0
0.161735 0 0
0.161735 0 0
0.163241 0 0
0.163241 0 0
0.164721 0 0
0.164721 0 0
0.166176 0 0
0.166176 0 0
0.167606 0 0
0.167606 0 0
0.16901 0 0
0.16901 0 0
0.170389 0 0
0.170389 0 0
0.171743 0 0
0.171743 0 0
0.173071 0 0
0.173071 0 0
0.174374 0 0
0.174374 0 0
0.175652 0 0
0.175652 0 0
0.176904 0 0
0.176904 0 0
0.178132 0 0
0.178132 0 0
0.179333 0 0
0.179333 0 0
0.18051 0 0
0.18051 0 0
0.181661 0 0
0.181661 0 0
0.182787 0 0
0.182787 0 0
0.183888 0 0
0.183888 0 0
0.184963 0 0
0.184963 0 0
0.186013 0 0
0.186013 0 0
0.187038 0 0
0.187038 0 0
0.188038 0 0
0.188038 0 0
0.189012 0 0
0.189012 0 0
0.189961 0 0
0.189961 0 0
0.190884 0 0
0.190884 0 0
0.191782 0 0
0.191782 0 0
0.192655 0 0
0.192655 0 0
0.193503 0 0
0.193503 0 0
0.194325 0 0
0.194325 0 0
0.195122 0 0
0.195122 0 0
0.195894 0 0
0.195894 0 0
0.196641 0 0
0.196641 0 0
0.197362 0 0
0.197362 0 0
0.198058 0 0
0.198058 0 0
0.198728 0 0
0.198728 0 0
0.199373 0 0
0.199373 0 0
0.199993 0 0
0.199993 0 0
0.200588 0 0
0.200588 0 0
0.201157 0 0
0.201157 0 0
0.201701 0 0
0.201701 0 0
0.20222 0 0
0.20222 0 0
0.202713 0 0
0.202713 0 0
0.203181 0 0
0.203181 0 0
0.203624 0 0
0.203624 0 0
0.204042 0 0
0.204042 0 0
0.204434 0 0
0.204434 0 0
0.204801 0 0
0.204801 0 0
0.205142 0 0
0.205142 0 0
0.205459 0 0
0.205459 0 0
0.20575 0 0
0.20575 0 0
0.206015 0 0
0.206015 0 0
0.206256 0 0
0.206256 0 0
0.206471 0 0
0.206471 0 0
0.20666 0 0
0.20666 0 0
0.206825 0 0
0.206825 0 0
0.206964 0 0
0.206964 0 0
0.207078 0 0
0.207078 0 0
0.207167 0 0
0.207167 0 0
0.20723 0 0
0.20723 0 0
0.207268 0 0
0.207268 0 0
0.20728 0 0
0.20728 0 0
0.207268 0 0
0.207268 0 0
0.20723 0 0
0.20723 0 0
0.207167 0 0
0.207167 0 0
0.207078 0 0
0.207078 0 0
0.206964 0 0
0.206964 0 0
0.206825 0 0
0.206825 0 0
0.20666 0 0
0.20666 0 0
0.206471 0 0
0.206471 0 0
0.206256 0 0
0.206256 0 0
0.206015 0 0
0.206015 0 0
0.20575 0 0
0.20575 0 0
0.205459 0 0
0.205459 0 0
0.205142 0 0
0.205142 0 0
0.204801 0 0
0.204801 0 0
0.204434 0 0
0.204434 0 0
0.204042 0 0
0.204042 0 0
0.203624 0 0
0.203624 0 0
0.203181 0 0
0.203181 0 0
0.202713 0 0
0.202713 0 0
0.20222 0 0
0.20222 0 0
0.201701 0 0
0.201701 0 0
0.201157 0 0
0.201157 0 0
0.200588 0 0
0.200588 0 0
0.199993 0 0
0.199993 0 0
0.199373 0 0
0.199373 0 0
0.198728 0 0
0.198728 0 0
0.198058 0 0
0.198058 0 0
0.197362 0 0
0.197362 0 0
0.196641 0 0
0.196641 0 0
0.195894 0 0
0.195894 0 0
0.195122 0 0
0.195122 0 0
0.194325 0 0
0.194325 0 0
0.193503 0 0
0.193503 0 0
0.192655 0 0
0.192655 0 0
0.191782 0 0
0.191782 0 0
0.190884 0 0
0.190884 0 0
0.189961 0 0
0.189961 0 0
0.189012 0 0
0.189012 0 0
0.188038 0 0
0.188038 0 0
0.187038 0 0
0.187038 0 0
0.186013 0 0
0.186013 0 0
0.184963 0 0
0.184963 0 0
0.183888 0 0
0.183888 0 0
0.182787 0 0
0.182787 0 0
0.181661 0 0
0.181661 0 0
0.18051 0 0
0.18051 0 0
0.179333 0 0
0.179333 0 0
0.178132 0 0
0.178132 0 0
0.176904 0 0
0.176904 0 0
0.175652 0 0
0.175652 0 0
0.174374 0 0
0.174374 0 0
0.173071 0 0
0.173071 0 0
0.171743 0 0
0.171743 0 0
0.170389 0 0
0.170389 0 0
0.16901 0 0
0.16901 0 0
0.167606 0 0
0.167606 0 0
0.166176 0 0
0.166176 0 0
0.164721 0 0
0.164721 0 0
0.163241 0 0
0.163241 0 0
0.161735 0 0
0.161735 0 0
0.160205 0 0
0.160205 0 0
0.158648 0 0
0.158648 0 0
0.157067 0 0
0.157067 0 0
0.15546 0 0
0.15546 0 0
0.153828 0 0
0.153828 0 0
0.152171 0 0
0.152171 0 0
0.150488 0 0
0.150488 0 0
0.14878 0 0
0.14878 0 0
0.147047 0 0
0.147047 0 0
0.145289 0 0
0.145289 0 0
0.143505 0 0
0.143505 0 0
0.141696 0 0
0.141696 0 0
0.139861 0 0
0.139861 0 0
0.138001 0 0
0.138001 0 0
0.136116 0 0
0.136116 0 0
0.134206 0 0
0.134206 0 0
0.13227 0 0
0.13227 0 0
0.130309 0 0
0.130309 0 0
0.128323 0 0
0.128323 0 0
0.126311 0 0
0.126311 0 0
0.124275 0 0
0.124275 0 0
0.122212 0 0
0.122212 0 0
0.120125 0 0
0.120125 0 0
0.118012 0 0
0.118012 0 0
0.115874 0 0
0.115874 0 0
0.113711 0 0
0.113711 0 0
0.111522 0 0
0.111522 0 0
0.109308 0 0
0.109308 0 0
0.107069 0 0
0.107069 0 0
0.104804 0 0
0.104804 0 0
0.102514 0 0
0.102514 0 0
0.100199 0 0
0.100199 0 0
0.0978585 0 0
0.0978585 0 0
0.0954927 0 0
0.0954927 0 0
0.0931016 0 0
0.0931016 0 0
0.0906852 0 0
0.0906852 0 0
0.0882434 0 0
0.0882434 0 0
0.0857764 0 0
0.0857764 0 0
0.0832841 0 0
0.0832841 0 0
0.0807665 0 0
0.0807665 0 0
0.0782235 0 0
0.0782235 0 0
0.0756553 0 0
0.0756553 0 0
0.0730618 0 0
0.0730618 0 0
0.0704429 0 0
0.0704429 0 0
0.0677988 0 0
0.0677988 0 0
0.0651294 0 0
0.0651294 0 0
0.0624346 0 0
0.0624346 0 0
0.0597146 0 0
0.0597146 0 0
0.0569692 0 0
0.0569692 0 0
0.0541986 0 0
0.0541986 0 0
0.0514026 0 0
0.0514026 0 0
0.0485813 0 0
0.0485813 0 0
0.0457348 0 0
0.0457348 0 0
0.0428629 0 0
0.0428629 0 0
0.0399657 0 0
0.0399657 0 0
0.0370433 0 0
0.0370433 0 0
0.0340955 0 0
0.0340955 0 0
0.0311224 0 0
0.0311224 0 0
0.028124 0 0
0.028124 0 0
0.0251004 0 0
0.0251004 0 0
0.0220514 0 0
0.0220514 0 0
0.0189771 0 0
0.0189771 0 0
0.0158775 0 0
0.0158775 0 0
0.0127526 0 0
0.0127526 0 0
0.00960241 0 0
0.00960241 0 0
0.00642691 0 0
0.00642691 0 0
0.0032261 0 0
0.0032261 0 0
0 0 0
VECTORS velocity double
0 0 0
-0.00217539 0 0
-0.00217539 0 0
-0.00433372 0 0
-0.00433372 0 0
-0.00647499 0 0
-0.00647499 0 0
-0.0085992 0 0
-0.0085992 0 0
-0.0107063 0 0
-0.0107063 0 0
-0.0127964 0 0
-0.0127964 0 0
-0.0148694 0 0
-0.0148694 0 0
-0.0169254 0 0
-0.0169254 0 0
-0.0189643 0 0
-0.0189643 0 0
-0.0209861 0 0
-0.0209861 0 0
-0.0229909 0 0
-0.0229909 0 0
-0.0249786 0 0
-0.0249786 0 0
-0.0269493 0 0
-0.0269493 0 0
-0.0289029 0 0
-0.0289029 0 0
-0.0308394 0 0
-0.0308394 0 0
-0.0327589 0 0
-0.0327589 0 0
-0.0346613 0 0
-0.0346613 0 0
-0.0365466 0 0
-0.0365466 0 0
-0.0384149 0 0
-0.0384149 0 0
-0.0402661 0 0
-0.0402661 0 0
-0.0421003 0 0
-0.0421003 0 0
-0.0439174 0 0
-0.0439174 0 0
-0.0457174 0 0
-0.0457174 0 0
-0.0475004 0 0
-0.0475004 0 0
-0.0492663 0 0
-0.0492663 0 0
-0.0510151 0 0
-0.0510151 0 0
-0.0527469 0 0
-0.0527469 0 0
-0.0544617 0 0
-0.0544617 0 0
-0.0561593 0 0
-0.0561593 0 0
-0.0578399 0 0
-0.0578399 0 0
-0.0595035 0 0
-0.0595035 0 0
-0.0611499 0 0
-0.0611499 0 0
-0.0627794 0 0
-0.0627794 0 0
-0.0643917 0 0
-0.0643917 0 0
-0.065987 0 0
-0.065987 0 0
-0.0675652 0 0
-0.0675652 0 0
-0.0691264 0 0
-0.0691264 0 0
-0.0706705 0 0
-0.0706705 0 0
-0.0721976 0 0
-0.0721976 0 0
-0.0737076 0 0
-0.0737076 0 0
-0.0752005 0 0
-0.0752005 0 0
-0.0766763 0 0
-0.0766763 0 0
-0.0781351 0 0
-0.0781351 0 0
-0.0795769 0 0
-0.0795769 0 0
-0.0810016 0 0
-0.0810016 0 0
-0.0824092 0 0
-0.0824092 0 0
-0.0837997 0 0
-0.0837997 0 0
-0.0851732 0 0
-0.0851732 0 0
-0.0865296 0 0
-0.0865296 0 0
-0.087869 0 0
-0.087869 0 0
-0.0891913 0 0
-0.0891913 0 0
-0.0904966 0 0
-0.0904966 0 0
-0.0917847 0 0
-0.0917847 0 0
-0.0930559 0 0
-0.0930559 0 0
-0.0943099 0 0
-0.0943099 0 0
-0.0955469 0 0
-0.0955469 0 0
-0.0967668 0 0
-0.0967668 0 0
-0.0979697 0 0
-0.0979697 0 0
-0.0991555 0 0
-0.0991555 0 0
-0.100324 0 0
-0.100324 0 0
-0.101476 0 0
-0.101476 0 0
-0.102611 0 0
-0.102611 0 0
-0.103728 0 0
-0.103728 0 0
-0.104829 0 0
-0.104829 0 0
-0.105912 0 0
-0.105912 0 0
-0.106978 0 0
-0.106978 0 0
-0.108028 0 0
-0.108028 0 0
-0.10906 0 0
-0.10906 0 0
-0.110075 0 0
-0.110075 0 0
-0.111073 0 0
-0.111073 0 0
-0.112054 0 0
-0.112054 0 0
-0.113018 0 0
-0.113018 0 0
-0.113965 0 0
-0.113965 0 0
-0.114895 0 0
-0.114895 0 0
-0.115808 0 0
-0.115808 0 0
-0.116704 0 0
-0.116704 0 0
-0.117582 0 0
-0.117582 0 0
-0.118444 0 0
-0.118444 0 0
-0.119289 0 0
-0.119289 0 0
-0.120116 0 0
-0.120116 0 0
-0.120927 0 0
-0.120927 0 0
-0.12172 0 0
-0.12172 0 0
-0.122496 0 0
-0.122496 0 0
-0.123256 0 0
-0.123256 0 0
-0.123998 0 0
-0.123998 0 0
-0.124723 0 0
-0.124723 0 0
-0.125431 0 0
-0.125431 0 0
-0.126122 0 0
-0.126122 0 0
-0.126796 0 0
-0.126796 0 0
-0.127453 0 0
-0.127453 0 0
-0.128093 0 0
-0.128093 0 0
-0.128715 0 0
-0.128715 0 0
-0.129321 0 0
-0.129321 0 0
-0.12991 0 0
-0.12991 0 0
-0.130481 0 0
-0.130481 0 0
-0.131036 0 0
-0.131036 0 0
-0.131573 0 0
-0.131573 0 0
-0.132094 0 0
-0.132094 0 0
-0.132597 0 0
-0.132597 0 0
-0.133083 0 0
-0.133083 0 0
-0.133553 0 0
-0.133553 0 0
-0.134005 0 0
-0.134005 0 0
-0.13444 0 0
-0.13444 0 0
-0.134858 0 0
-0.134858 0 0
-0.135259 0 0
-0.135259 0 0
-0.135643 0 0
-0.135643 0 0
-0.136009 0 0
-0.136009 0 0
-0.136359 0 0
-0.136359 0 0
-0.136692 0 0
-0.136692 0 0
-0.137008 0 0
-0.137008 0 0
-0.137306 0 0
-0.137306 0 0
-0.137588 0 0
-0.137588 0 0
-0.137852 0 0
-0.137852 0 0
-0.1381 0 0
-0.1381 0 0
-0.13833 0 0
-0.13833 0 0
-0.138543 0 0
-0.138543 0 0
-0.138739 0 0
-0.138739 0 0
-0.138919 0 0
-0.138919 0 0
-0.139081 0 0
-0.139081 0 0
-0.139226 0 0
-0.139226 0 0
-0.139354 0 0
-0.139354 0 0
-0.139464 0 0
-0.139464 0 0
-0.139558 0 0
-0.139558 0 0
-0.139635 0 0
-0.139635 0 0
-0.139695 0 0
-0.139695 0 0
-0.139737 0 0
-0.139737 0 0
-0.139763 0 0
-0.139763 0 0
-0.139772 0 0
-0.139772 0 0
-0.139763 0 0
-0.139763 0 0
-0.139737 0 0
-0.139737 0 0
-0.139695 0 0
-0.139695 0 0
-0.139635 0 0
-0.139635 0 0
-0.139558 0 0
-0.139558 0 0
-0.139464 0 0
-0.139464 0 0
-0.139354 0 0
-0.139354 0 0
-0.139226 0 0
-0.139226 0 0
-0.139081 0 0
-0.139081 0 0
-0.138919 0 0
-0.138919 0 0
-0.138739 0 0
-0.138739 0 0
-0.138543 0 0
-0.138543 0 0
-0.13833 0 0
-0.13833 0 0
-0.1381 0 0
-0.1381 0 0
-0.137852 0 0
-0.137852 0 0
-0.137588 0 0
-0.137588 0 0
-0.137306 0 0
-0.137306 0 0
-0.137008 0 0
-0.137008 0 0
-0.136692 0 0
-0.136692 0 0
-0.136359 0 0
-0.136359 0 0
-0.136009 0 0
-0.136009 0 0
-0.135643 0 0
-0.135643 0 0
-0.135259 0 0
-0.135259 0 0
-0.134858 0 0
-0.134858 0 0
-0.13444 0 0
-0.13444 0 0
-0.134005 0 0
-0.134005 0 0
-0.133553 0 0
-0.133553 0 0
-0.133083 0 0
-0.133083 0 0
-0.132597 0 0
-0.132597 0 0
-0.132094 0 0
-0.132094 0 0
-0.131573 0 0
-0.131573 0 0
-0.131036 0 0
-0.131036 0 0
-0.130481 0 0
-0.130481 0 0
-0.12991 0 0
-0.12991 0 0
-0.129321 0 0
-0.129321 0 0
-0.128715 0 0
-0.128715 0 0
-0.128093 0 0
-0.128093 0 0
-0.127453 0 0
-0.127453 0 0
-0.126796 0 0
-0.126796 0 0
-0.126122 0 0
-0.126122 0 0
-0.125431 0 0
-0.125431 0 0
-0.124723 0 0
-0.124723 0 0
-0.123998 0 0
-0.123998 0 0
-0.123256 0 0
-0.123256 0 0
-0.122496 0 0
-0.122496 0 0
-0.12172 0 0
-0.12172 0 0
-0.120927 0 0
-0.120927 0 0
-0.120116 0 0
-0.120116 0 0
-0.119289 0 0
-0.119289 0 0
-0.118444 0 0
-0.118444 0 0
-0.117582 0 0
-0.117582 0 0
-0.116704 0 0
-0.116704 0 0
-0.115808 0 0
-0.115808 0 0
-0.114895 0 0
-0.114895 0 0
-0.113965 0 0
-0.113965 0 0
-0.113018 0 0
-0.113018 0 0
-0.112054 0 0
-0.112054 0 0
-0.111073 0 0
-0.111073 0 0
-0.110075 0 0
-0.110075 0 0
-0.10906 0 0
-0.10906 0 0
-0.108028 0 0
-0.108028 0 0
-0.106978 0 0
-0.106978 0 0
-0.105912 0 0
-0.105912 0 0
-0.104829 0 0
-0.104829 0 0
-0.103728 0 0
-0.103728 0 0
-0.102611 0 0
-0.102611 0 0
-0.101476 0 0
-0.101476 0 0
-0.100324 0 0
-0.100324 0 0
-0.0991555 0 0
-0.0991555 0 0
-0.0979697 0 0
-0.0979697 0 0
-0.0967668 0 0
-0.0967668 0 0
-0.0955469 0 0
-0.0955469 0 0
-0.0943099 0 0
-0.0943099 0 0
-0.0930559 0 0
-0.0930559 0 0
-0.0917847 0 0
-0.0917847 0 0
-0.0904966 0 0
-0.0904966 0 0
-0.0891913 0 0
-0.0891913 0 0
-0.087869 0 0
-0.087869 0 0
-0.0865296 0 0
-0.0865296 0 0
-0.0851732 0 0
-0.0851732 0 0
-0.0837997 0 0
-0.0837997 0 0
-0.0824092 0 0
-0.0824092 0 0
-0.0810016 0 0
-0.0810016 0 0
-0.0795769 0 0
-0.0795769 0 0
-0.0781351 0 0
-0.0781351 0 0
-0.0766763 0 0
-0.0766763 0 0
-0.0752005 0 0
-0.0752005 0 0
-0.0737076 0 0
-0.0737076 0 0
-0.0721976 0 0
-0.0721976 0 0
-0.0706705 0 0
-0.0706705 0 0
-0.0691264 0 0
-0.0691264 0 0
-0.0675652 0 0
-0.0675652 0 0
-0.065987 0 0
-0.065987 0 0
-0.0643917 0 0
-0.0643917 0 0
-0.0627794 0 0
-0.0627794 0 0
-0.0611499 0 0
-0.0611499 0 0
-0.0595035 0 0
-0.0595035 0 0
-0.0578399 0 0
-0.0578399 0 0
-0.0561593 0 0
-0.0561593 0 0
-0.0544617 0 0
-0.0544617 0 0
-0.0527469 0 0
-0.0527469 0 0
-0.0510151 0 0
-0.0510151 0 0
-0.0492663 0 0
-0.0492663 0 0
-0.0475004 0 0
-0.0475004 0 0
-0.0457174 0 0
-0.0457174 0 0
-0.0439174 0 0
-0.0439174 0 0
-0.0421003 0 0
-0.0421003 0 0
-0.0402661 0 0
-0.0402661 0 0
-0.0384149 0 0
-0.0384149 0 0
-0.0365466 0 0
-0.0365466 0 0
-0.0346613 0 0
-0.0346613 0 0
-0.0327589 0 0
-0.0327589 0 0
-0.0308394 0 0
-0.0308394 0 0
-0.0289029 0 0
-0.0289029 0 0
-0.0269493 0 0
-0.0269493 0 0
-0.0249786 0 0
-0.0249786 0 0
-0.0229909 0 0
-0.0229909 0 0
-0.0209861 0 0
-0.0209861 0 0
-0.0189643 0 0
-0.0189643 0 0
-0.0169254 0 0
-0.0169254 0 0
-0.0148694 0 0
-0.0148694 0 0
-0.0127964 0 0
-0.0127964 0 0
-0.0107063 0 0
-0.0107063 0 0
-0.0085992 0 0
-0.0085992 0 0
-0.00647499 0 0
-0.00647499 0 0
-0.00433372 0 0
-0.00433372 0 0
-0.00217539 0 0
-0.00217539 0 0
0 0 0
