# vtk DataFile Version 3.0
#This file was generated by the deal.II library on 2025/4/1 at 12:58:45
ASCII
DATASET UNSTRUCTURED_GRID

FIELD FieldData 1
TIME 1 1 double
1.37622
POINTS 8 double
0 0 0
0.25 0 0
0.25 0 0
0.5 0 0
0.5 0 0
0.75 0 0
0.75 0 0
1 0 0

CELLS 4 12
2	0	1
2	2	3
2	4	5
2	6	7

CELL_TYPES 4
 3 3 3 3
POINT_DATA 8
VECTORS displacement double
0 0 0
0.182352 0 0
0.182352 0 0
0.243112 0 0
0.243112 0 0
0.182352 0 0
0.182352 0 0
0 0 0
VECTORS velocity double
0 0 0
0.0391225 0 0
0.0391225 0 0
0.0524629 0 0
0.0524629 0 0
0.0391225 0 0
0.0391225 0 0
0 0 0
