# vtk DataFile Version 3.0
#This file was generated by the deal.II library on 2025/3/10 at 16:35:50
ASCII
DATASET UNSTRUCTURED_GRID

FIELD FieldData 1
TIME 1 1 double
5.43696
POINTS 256 double
0 0 0
0.625 0 0
0 0.0625 0
0.625 0.0625 0
0.625 0 0
1.25 0 0
0.625 0.0625 0
1.25 0.0625 0
0 0.0625 0
0.625 0.0625 0
0 0.125 0
0.625 0.125 0
0.625 0.0625 0
1.25 0.0625 0
0.625 0.125 0
1.25 0.125 0
1.25 0 0
1.875 0 0
1.25 0.0625 0
1.875 0.0625 0
1.875 0 0
2.5 0 0
1.875 0.0625 0
2.5 0.0625 0
1.25 0.0625 0
1.875 0.0625 0
1.25 0.125 0
1.875 0.125 0
1.875 0.0625 0
2.5 0.0625 0
1.875 0.125 0
2.5 0.125 0
0 0.125 0
0.625 0.125 0
0 0.1875 0
0.625 0.1875 0
0.625 0.125 0
1.25 0.125 0
0.625 0.1875 0
1.25 0.1875 0
0 0.1875 0
0.625 0.1875 0
0 0.25 0
0.625 0.25 0
0.625 0.1875 0
1.25 0.1875 0
0.625 0.25 0
1.25 0.25 0
1.25 0.125 0
1.875 0.125 0
1.25 0.1875 0
1.875 0.1875 0
1.875 0.125 0
2.5 0.125 0
1.875 0.1875 0
2.5 0.1875 0
1.25 0.1875 0
1.875 0.1875 0
1.25 0.25 0
1.875 0.25 0
1.875 0.1875 0
2.5 0.1875 0
1.875 0.25 0
2.5 0.25 0
2.5 0 0
3.125 0 0
2.5 0.0625 0
3.125 0.0625 0
3.125 0 0
3.75 0 0
3.125 0.0625 0
3.75 0.0625 0
2.5 0.0625 0
3.125 0.0625 0
2.5 0.125 0
3.125 0.125 0
3.125 0.0625 0
3.75 0.0625 0
3.125 0.125 0
3.75 0.125 0
3.75 0 0
4.375 0 0
3.75 0.0625 0
4.375 0.0625 0
4.375 0 0
5 0 0
4.375 0.0625 0
5 0.0625 0
3.75 0.0625 0
4.375 0.0625 0
3.75 0.125 0
4.375 0.125 0
4.375 0.0625 0
5 0.0625 0
4.375 0.125 0
5 0.125 0
2.5 0.125 0
3.125 0.125 0
2.5 0.1875 0
3.125 0.1875 0
3.125 0.125 0
3.75 0.125 0
3.125 0.1875 0
3.75 0.1875 0
2.5 0.1875 0
3.125 0.1875 0
2.5 0.25 0
3.125 0.25 0
3.125 0.1875 0
3.75 0.1875 0
3.125 0.25 0
3.75 0.25 0
3.75 0.125 0
4.375 0.125 0
3.75 0.1875 0
4.375 0.1875 0
4.375 0.125 0
5 0.125 0
4.375 0.1875 0
5 0.1875 0
3.75 0.1875 0
4.375 0.1875 0
3.75 0.25 0
4.375 0.25 0
4.375 0.1875 0
5 0.1875 0
4.375 0.25 0
5 0.25 0
0 0.25 0
0.625 0.25 0
0 0.3125 0
0.625 0.3125 0
0.625 0.25 0
1.25 0.25 0
0.625 0.3125 0
1.25 0.3125 0
0 0.3125 0
0.625 0.3125 0
0 0.375 0
0.625 0.375 0
0.625 0.3125 0
1.25 0.3125 0
0.625 0.375 0
1.25 0.375 0
1.25 0.25 0
1.875 0.25 0
1.25 0.3125 0
1.875 0.3125 0
1.875 0.25 0
2.5 0.25 0
1.875 0.3125 0
2.5 0.3125 0
1.25 0.3125 0
1.875 0.3125 0
1.25 0.375 0
1.875 0.375 0
1.875 0.3125 0
2.5 0.3125 0
1.875 0.375 0
2.5 0.375 0
0 0.375 0
0.625 0.375 0
0 0.4375 0
0.625 0.4375 0
0.625 0.375 0
1.25 0.375 0
0.625 0.4375 0
1.25 0.4375 0
0 0.4375 0
0.625 0.4375 0
0 0.5 0
0.625 0.5 0
0.625 0.4375 0
1.25 0.4375 0
0.625 0.5 0
1.25 0.5 0
1.25 0.375 0
1.875 0.375 0
1.25 0.4375 0
1.875 0.4375 0
1.875 0.375 0
2.5 0.375 0
1.875 0.4375 0
2.5 0.4375 0
1.25 0.4375 0
1.875 0.4375 0
1.25 0.5 0
1.875 0.5 0
1.875 0.4375 0
2.5 0.4375 0
1.875 0.5 0
2.5 0.5 0
2.5 0.25 0
3.125 0.25 0
2.5 0.3125 0
3.125 0.3125 0
3.125 0.25 0
3.75 0.25 0
3.125 0.3125 0
3.75 0.3125 0
2.5 0.3125 0
3.125 0.3125 0
2.5 0.375 0
3.125 0.375 0
3.125 0.3125 0
3.75 0.3125 0
3.125 0.375 0
3.75 0.375 0
3.75 0.25 0
4.375 0.25 0
3.75 0.3125 0
4.375 0.3125 0
4.375 0.25 0
5 0.25 0
4.375 0.3125 0
5 0.3125 0
3.75 0.3125 0
4.375 0.3125 0
3.75 0.375 0
4.375 0.375 0
4.375 0.3125 0
5 0.3125 0
4.375 0.375 0
5 0.375 0
2.5 0.375 0
3.125 0.375 0
2.5 0.4375 0
3.125 0.4375 0
3.125 0.375 0
3.75 0.375 0
3.125 0.4375 0
3.75 0.4375 0
2.5 0.4375 0
3.125 0.4375 0
2.5 0.5 0
3.125 0.5 0
3.125 0.4375 0
3.75 0.4375 0
3.125 0.5 0
3.75 0.5 0
3.75 0.375 0
4.375 0.375 0
3.75 0.4375 0
4.375 0.4375 0
4.375 0.375 0
5 0.375 0
4.375 0.4375 0
5 0.4375 0
3.75 0.4375 0
4.375 0.4375 0
3.75 0.5 0
4.375 0.5 0
4.375 0.4375 0
5 0.4375 0
4.375 0.5 0
5 0.5 0

CELLS 64 320
4	0	1	3	2
4	4	5	7	6
4	8	9	11	10
4	12	13	15	14
4	16	17	19	18
4	20	21	23	22
4	24	25	27	26
4	28	29	31	30
4	32	33	35	34
4	36	37	39	38
4	40	41	43	42
4	44	45	47	46
4	48	49	51	50
4	52	53	55	54
4	56	57	59	58
4	60	61	63	62
4	64	65	67	66
4	68	69	71	70
4	72	73	75	74
4	76	77	79	78
4	80	81	83	82
4	84	85	87	86
4	88	89	91	90
4	92	93	95	94
4	96	97	99	98
4	100	101	103	102
4	104	105	107	106
4	108	109	111	110
4	112	113	115	114
4	116	117	119	118
4	120	121	123	122
4	124	125	127	126
4	128	129	131	130
4	132	133	135	134
4	136	137	139	138
4	140	141	143	142
4	144	145	147	146
4	148	149	151	150
4	152	153	155	154
4	156	157	159	158
4	160	161	163	162
4	164	165	167	166
4	168	169	171	170
4	172	173	175	174
4	176	177	179	178
4	180	181	183	182
4	184	185	187	186
4	188	189	191	190
4	192	193	195	194
4	196	197	199	198
4	200	201	203	202
4	204	205	207	206
4	208	209	211	210
4	212	213	215	214
4	216	217	219	218
4	220	221	223	222
4	224	225	227	226
4	228	229	231	230
4	232	233	235	234
4	236	237	239	238
4	240	241	243	242
4	244	245	247	246
4	248	249	251	250
4	252	253	255	254

CELL_TYPES 64
 9 9 9 9 9 9 9 9 9 9 9 9 9 9 9 9 9 9 9 9 9 9 9 9 9 9 9 9 9 9 9 9 9 9 9 9 9 9 9 9 9 9 9 9 9 9 9 9 9 9 9 9 9 9 9 9 9 9 9 9 9 9 9 9
POINT_DATA 256
VECTORS displacement double
0 0 0
-1.06694e-05 -1.66884e-05 0
0 0 0
-7.80032e-06 -1.59132e-05 0
-1.06694e-05 -1.66884e-05 0
-2.03253e-05 -5.6856e-05 0
-7.80032e-06 -1.59132e-05 0
-1.52245e-05 -5.64088e-05 0
0 0 0
-7.80032e-06 -1.59132e-05 0
0 0 0
-5.11369e-06 -1.53646e-05 0
-7.80032e-06 -1.59132e-05 0
-1.52245e-05 -5.64088e-05 0
-5.11369e-06 -1.53646e-05 0
-1.01321e-05 -5.60808e-05 0
-2.03253e-05 -5.6856e-05 0
-2.71123e-05 -0.000117577 0
-1.52245e-05 -5.64088e-05 0
-2.02723e-05 -0.000117245 0
-2.71123e-05 -0.000117577 0
-3.16792e-05 -0.000192206 0
-2.02723e-05 -0.000117245 0
-2.37199e-05 -0.000191996 0
-1.52245e-05 -5.64088e-05 0
-2.02723e-05 -0.000117245 0
-1.01321e-05 -5.60808e-05 0
-1.34897e-05 -0.000117012 0
-2.02723e-05 -0.000117245 0
-2.37199e-05 -0.000191996 0
-1.34897e-05 -0.000117012 0
-1.57927e-05 -0.000191844 0
0 0 0
-5.11369e-06 -1.53646e-05 0
0 0 0
-2.53258e-06 -1.50378e-05 0
-5.11369e-06 -1.53646e-05 0
-1.01321e-05 -5.60808e-05 0
-2.53258e-06 -1.50378e-05 0
-5.05935e-06 -5.58808e-05 0
0 0 0
-2.53258e-06 -1.50378e-05 0
0 0 0
7.53103e-19 -1.49292e-05 0
-2.53258e-06 -1.50378e-05 0
-5.05935e-06 -5.58808e-05 0
7.53103e-19 -1.49292e-05 0
1.5888e-18 -5.58136e-05 0
-1.01321e-05 -5.60808e-05 0
-1.34897e-05 -0.000117012 0
-5.05935e-06 -5.58808e-05 0
-6.73796e-06 -0.000116872 0
-1.34897e-05 -0.000117012 0
-1.57927e-05 -0.000191844 0
-6.73796e-06 -0.000116872 0
-7.88992e-06 -0.000191752 0
-5.05935e-06 -5.58808e-05 0
-6.73796e-06 -0.000116872 0
1.5888e-18 -5.58136e-05 0
2.55554e-18 -0.000116826 0
-6.73796e-06 -0.000116872 0
-7.88992e-06 -0.000191752 0
2.55554e-18 -0.000116826 0
3.32845e-18 -0.000191721 0
-3.16792e-05 -0.000192206 0
-3.44723e-05 -0.000275783 0
-2.37199e-05 -0.000191996 0
-2.58228e-05 -0.000275663 0
-3.44723e-05 -0.000275783 0
-3.5931e-05 -0.000364422 0
-2.58228e-05 -0.000275663 0
-2.69275e-05 -0.000364367 0
-2.37199e-05 -0.000191996 0
-2.58228e-05 -0.000275663 0
-1.57927e-05 -0.000191844 0
-1.72008e-05 -0.000275577 0
-2.58228e-05 -0.000275663 0
-2.69275e-05 -0.000364367 0
-1.72008e-05 -0.000275577 0
-1.79416e-05 -0.000364326 0
-3.5931e-05 -0.000364422 0
-3.64999e-05 -0.000455341 0
-2.69275e-05 -0.000364367 0
-2.7365e-05 -0.000455325 0
-3.64999e-05 -0.000455341 0
-3.66272e-05 -0.000546877 0
-2.7365e-05 -0.000455325 0
-2.74681e-05 -0.000546873 0
-2.69275e-05 -0.000364367 0
-2.7365e-05 -0.000455325 0
-1.79416e-05 -0.000364326 0
-1.82386e-05 -0.000455312 0
-2.7365e-05 -0.000455325 0
-2.74681e-05 -0.000546873 0
-1.82386e-05 -0.000455312 0
-1.83108e-05 -0.00054687 0
-1.57927e-05 -0.000191844 0
-1.72008e-05 -0.000275577 0
-7.88992e-06 -0.000191752 0
-8.59615e-06 -0.000275525 0
-1.72008e-05 -0.000275577 0
-1.79416e-05 -0.000364326 0
-8.59615e-06 -0.000275525 0
-8.9678e-06 -0.000364302 0
-7.88992e-06 -0.000191752 0
-8.59615e-06 -0.000275525 0
3.32845e-18 -0.000191721 0
4.29167e-18 -0.000275507 0
-8.59615e-06 -0.000275525 0
-8.9678e-06 -0.000364302 0
4.29167e-18 -0.000275507 0
4.77365e-18 -0.000364294 0
-1.79416e-05 -0.000364326 0
-1.82386e-05 -0.000455312 0
-8.9678e-06 -0.000364302 0
-9.11789e-06 -0.000455305 0
-1.82386e-05 -0.000455312 0
-1.83108e-05 -0.00054687 0
-9.11789e-06 -0.000455305 0
-9.15502e-06 -0.000546868 0
-8.9678e-06 -0.000364302 0
-9.11789e-06 -0.000455305 0
4.77365e-18 -0.000364294 0
5.48088e-18 -0.000455302 0
-9.11789e-06 -0.000455305 0
-9.15502e-06 -0.000546868 0
5.48088e-18 -0.000455302 0
6.72975e-18 -0.000546868 0
0 0 0
7.53103e-19 -1.49292e-05 0
0 0 0
2.53258e-06 -1.50378e-05 0
7.53103e-19 -1.49292e-05 0
1.5888e-18 -5.58136e-05 0
2.53258e-06 -1.50378e-05 0
5.05935e-06 -5.58808e-05 0
0 0 0
2.53258e-06 -1.50378e-05 0
0 0 0
5.11369e-06 -1.53646e-05 0
2.53258e-06 -1.50378e-05 0
5.05935e-06 -5.58808e-05 0
5.11369e-06 -1.53646e-05 0
1.01321e-05 -5.60808e-05 0
1.5888e-18 -5.58136e-05 0
2.55554e-18 -0.000116826 0
5.05935e-06 -5.58808e-05 0
6.73796e-06 -0.000116872 0
2.55554e-18 -0.000116826 0
3.32845e-18 -0.000191721 0
6.73796e-06 -0.000116872 0
7.88992e-06 -0.000191752 0
5.05935e-06 -5.58808e-05 0
6.73796e-06 -0.000116872 0
1.01321e-05 -5.60808e-05 0
1.34897e-05 -0.000117012 0
6.73796e-06 -0.000116872 0
7.88992e-06 -0.000191752 0
1.34897e-05 -0.000117012 0
1.57927e-05 -0.000191844 0
0 0 0
5.11369e-06 -1.53646e-05 0
0 0 0
7.80032e-06 -1.59132e-05 0
5.11369e-06 -1.53646e-05 0
1.01321e-05 -5.60808e-05 0
7.80032e-06 -1.59132e-05 0
1.52245e-05 -5.64088e-05 0
0 0 0
7.80032e-06 -1.59132e-05 0
0 0 0
1.06694e-05 -1.66884e-05 0
7.80032e-06 -1.59132e-05 0
1.52245e-05 -5.64088e-05 0
1.06694e-05 -1.66884e-05 0
2.03253e-05 -5.6856e-05 0
1.01321e-05 -5.60808e-05 0
1.34897e-05 -0.000117012 0
1.52245e-05 -5.64088e-05 0
2.02723e-05 -0.000117245 0
1.34897e-05 -0.000117012 0
1.57927e-05 -0.000191844 0
2.02723e-05 -0.000117245 0
2.37199e-05 -0.000191996 0
1.52245e-05 -5.64088e-05 0
2.02723e-05 -0.000117245 0
2.03253e-05 -5.6856e-05 0
2.71123e-05 -0.000117577 0
2.02723e-05 -0.000117245 0
2.37199e-05 -0.000191996 0
2.71123e-05 -0.000117577 0
3.16792e-05 -0.000192206 0
3.32845e-18 -0.000191721 0
4.29167e-18 -0.000275507 0
7.88992e-06 -0.000191752 0
8.59615e-06 -0.000275525 0
4.29167e-18 -0.000275507 0
4.77365e-18 -0.000364294 0
8.59615e-06 -0.000275525 0
8.9678e-06 -0.000364302 0
7.88992e-06 -0.000191752 0
8.59615e-06 -0.000275525 0
1.57927e-05 -0.000191844 0
1.72008e-05 -0.000275577 0
8.59615e-06 -0.000275525 0
8.9678e-06 -0.000364302 0
1.72008e-05 -0.000275577 0
1.79416e-05 -0.000364326 0
4.77365e-18 -0.000364294 0
5.48088e-18 -0.000455302 0
8.9678e-06 -0.000364302 0
9.11789e-06 -0.000455305 0
5.48088e-18 -0.000455302 0
6.72975e-18 -0.000546868 0
9.11789e-06 -0.000455305 0
9.15502e-06 -0.000546868 0
8.9678e-06 -0.000364302 0
9.11789e-06 -0.000455305 0
1.79416e-05 -0.000364326 0
1.82386e-05 -0.000455312 0
9.11789e-06 -0.000455305 0
9.15502e-06 -0.000546868 0
1.82386e-05 -0.000455312 0
1.83108e-05 -0.00054687 0
1.57927e-05 -0.000191844 0
1.72008e-05 -0.000275577 0
2.37199e-05 -0.000191996 0
2.58228e-05 -0.000275663 0
1.72008e-05 -0.000275577 0
1.79416e-05 -0.000364326 0
2.58228e-05 -0.000275663 0
2.69275e-05 -0.000364367 0
2.37199e-05 -0.000191996 0
2.58228e-05 -0.000275663 0
3.16792e-05 -0.000192206 0
3.44723e-05 -0.000275783 0
2.58228e-05 -0.000275663 0
2.69275e-05 -0.000364367 0
3.44723e-05 -0.000275783 0
3.5931e-05 -0.000364422 0
1.79416e-05 -0.000364326 0
1.82386e-05 -0.000455312 0
2.69275e-05 -0.000364367 0
2.7365e-05 -0.000455325 0
1.82386e-05 -0.000455312 0
1.83108e-05 -0.00054687 0
2.7365e-05 -0.000455325 0
2.74681e-05 -0.000546873 0
2.69275e-05 -0.000364367 0
2.7365e-05 -0.000455325 0
3.5931e-05 -0.000364422 0
3.64999e-05 -0.000455341 0
2.7365e-05 -0.000455325 0
2.74681e-05 -0.000546873 0
3.64999e-05 -0.000455341 0
3.66272e-05 -0.000546877 0
VECTORS velocity double
0 0 0
9.31303e-06 1.45669e-05 0
0 0 0
6.80868e-06 1.38902e-05 0
9.31303e-06 1.45669e-05 0
1.77413e-05 4.9628e-05 0
6.80868e-06 1.38902e-05 0
1.3289e-05 4.92376e-05 0
0 0 0
6.80868e-06 1.38902e-05 0
0 0 0
4.4636e-06 1.34114e-05 0
6.80868e-06 1.38902e-05 0
1.3289e-05 4.92376e-05 0
4.4636e-06 1.34114e-05 0
8.84399e-06 4.89514e-05 0
1.77413e-05 4.9628e-05 0
2.36656e-05 0.00010263 0
1.3289e-05 4.92376e-05 0
1.76951e-05 0.00010234 0
2.36656e-05 0.00010263 0
2.76518e-05 0.000167771 0
1.76951e-05 0.00010234 0
2.07044e-05 0.000167588 0
1.3289e-05 4.92376e-05 0
1.76951e-05 0.00010234 0
8.84399e-06 4.89514e-05 0
1.17747e-05 0.000102136 0
1.76951e-05 0.00010234 0
2.07044e-05 0.000167588 0
1.17747e-05 0.000102136 0
1.37849e-05 0.000167455 0
0 0 0
4.4636e-06 1.34114e-05 0
0 0 0
2.21062e-06 1.31261e-05 0
4.4636e-06 1.34114e-05 0
8.84399e-06 4.89514e-05 0
2.21062e-06 1.31261e-05 0
4.41616e-06 4.87768e-05 0
0 0 0
2.21062e-06 1.31261e-05 0
0 0 0
-6.33136e-18 1.30313e-05 0
2.21062e-06 1.31261e-05 0
4.41616e-06 4.87768e-05 0
-6.33136e-18 1.30313e-05 0
-1.6069e-17 4.87182e-05 0
8.84399e-06 4.89514e-05 0
1.17747e-05 0.000102136 0
4.41616e-06 4.87768e-05 0
5.88137e-06 0.000102015 0
1.17747e-05 0.000102136 0
1.37849e-05 0.000167455 0
5.88137e-06 0.000102015 0
6.88688e-06 0.000167375 0
4.41616e-06 4.87768e-05 0
5.88137e-06 0.000102015 0
-1.6069e-17 4.87182e-05 0
-2.15291e-17 0.000101974 0
5.88137e-06 0.000102015 0
6.88688e-06 0.000167375 0
-2.15291e-17 0.000101974 0
-3.76026e-17 0.000167348 0
2.76518e-05 0.000167771 0
3.00898e-05 0.000240723 0
2.07044e-05 0.000167588 0
2.254e-05 0.000240618 0
3.00898e-05 0.000240723 0
3.13631e-05 0.000318093 0
2.254e-05 0.000240618 0
2.35042e-05 0.000318045 0
2.07044e-05 0.000167588 0
2.254e-05 0.000240618 0
1.37849e-05 0.000167455 0
1.50141e-05 0.000240543 0
2.254e-05 0.000240618 0
2.35042e-05 0.000318045 0
1.50141e-05 0.000240543 0
1.56607e-05 0.00031801 0
3.13631e-05 0.000318093 0
3.18597e-05 0.000397454 0
2.35042e-05 0.000318045 0
2.38861e-05 0.000397439 0
3.18597e-05 0.000397454 0
3.19708e-05 0.000477353 0
2.38861e-05 0.000397439 0
2.3976e-05 0.00047735 0
2.35042e-05 0.000318045 0
2.38861e-05 0.000397439 0
1.56607e-05 0.00031801 0
1.59199e-05 0.000397429 0
2.38861e-05 0.000397439 0
2.3976e-05 0.00047735 0
1.59199e-05 0.000397429 0
1.5983e-05 0.000477347 0
1.37849e-05 0.000167455 0
1.50141e-05 0.000240543 0
6.88688e-06 0.000167375 0
7.50332e-06 0.000240498 0
1.50141e-05 0.000240543 0
1.56607e-05 0.00031801 0
7.50332e-06 0.000240498 0
7.82772e-06 0.000317989 0
6.88688e-06 0.000167375 0
7.50332e-06 0.000240498 0
-3.76026e-17 0.000167348 0
-4.33231e-17 0.000240482 0
7.50332e-06 0.000240498 0
7.82772e-06 0.000317989 0
-4.33231e-17 0.000240482 0
-7.19846e-17 0.000317981 0
1.56607e-05 0.00031801 0
1.59199e-05 0.000397429 0
7.82772e-06 0.000317989 0
7.95873e-06 0.000397422 0
1.59199e-05 0.000397429 0
1.5983e-05 0.000477347 0
7.95873e-06 0.000397422 0
7.99114e-06 0.000477345 0
7.82772e-06 0.000317989 0
7.95873e-06 0.000397422 0
-7.19846e-17 0.000317981 0
-7.78306e-17 0.00039742 0
7.95873e-06 0.000397422 0
7.99114e-06 0.000477345 0
-7.78306e-17 0.00039742 0
-9.07522e-17 0.000477345 0
0 0 0
-6.33136e-18 1.30313e-05 0
0 0 0
-2.21062e-06 1.31261e-05 0
-6.33136e-18 1.30313e-05 0
-1.6069e-17 4.87182e-05 0
-2.21062e-06 1.31261e-05 0
-4.41616e-06 4.87768e-05 0
0 0 0
-2.21062e-06 1.31261e-05 0
0 0 0
-4.4636e-06 1.34114e-05 0
-2.21062e-06 1.31261e-05 0
-4.41616e-06 4.87768e-05 0
-4.4636e-06 1.34114e-05 0
-8.84399e-06 4.89514e-05 0
-1.6069e-17 4.87182e-05 0
-2.15291e-17 0.000101974 0
-4.41616e-06 4.87768e-05 0
-5.88137e-06 0.000102015 0
-2.15291e-17 0.000101974 0
-3.76026e-17 0.000167348 0
-5.88137e-06 0.000102015 0
-6.88688e-06 0.000167375 0
-4.41616e-06 4.87768e-05 0
-5.88137e-06 0.000102015 0
-8.84399e-06 4.89514e-05 0
-1.17747e-05 0.000102136 0
-5.88137e-06 0.000102015 0
-6.88688e-06 0.000167375 0
-1.17747e-05 0.000102136 0
-1.37849e-05 0.000167455 0
0 0 0
-4.4636e-06 1.34114e-05 0
0 0 0
-6.80868e-06 1.38902e-05 0
-4.4636e-06 1.34114e-05 0
-8.84399e-06 4.89514e-05 0
-6.80868e-06 1.38902e-05 0
-1.3289e-05 4.92376e-05 0
0 0 0
-6.80868e-06 1.38902e-05 0
0 0 0
-9.31303e-06 1.45669e-05 0
-6.80868e-06 1.38902e-05 0
-1.3289e-05 4.92376e-05 0
-9.31303e-06 1.45669e-05 0
-1.77413e-05 4.9628e-05 0
-8.84399e-06 4.89514e-05 0
-1.17747e-05 0.000102136 0
-1.3289e-05 4.92376e-05 0
-1.76951e-05 0.00010234 0
-1.17747e-05 0.000102136 0
-1.37849e-05 0.000167455 0
-1.76951e-05 0.00010234 0
-2.07044e-05 0.000167588 0
-1.3289e-05 4.92376e-05 0
-1.76951e-05 0.00010234 0
-1.77413e-05 4.9628e-05 0
-2.36656e-05 0.00010263 0
-1.76951e-05 0.00010234 0
-2.07044e-05 0.000167588 0
-2.36656e-05 0.00010263 0
-2.76518e-05 0.000167771 0
-3.76026e-17 0.000167348 0
-4.33231e-17 0.000240482 0
-6.88688e-06 0.000167375 0
-7.50332e-06 0.000240498 0
-4.33231e-17 0.000240482 0
-7.19846e-17 0.000317981 0
-7.50332e-06 0.000240498 0
-7.82772e-06 0.000317989 0
-6.88688e-06 0.000167375 0
-7.50332e-06 0.000240498 0
-1.37849e-05 0.000167455 0
-1.50141e-05 0.000240543 0
-7.50332e-06 0.000240498 0
-7.82772e-06 0.000317989 0
-1.50141e-05 0.000240543 0
-1.56607e-05 0.00031801 0
-7.19846e-17 0.000317981 0
-7.78306e-17 0.00039742 0
-7.82772e-06 0.000317989 0
-7.95873e-06 0.000397422 0
-7.78306e-17 0.00039742 0
-9.07522e-17 0.000477345 0
-7.95873e-06 0.000397422 0
-7.99114e-06 0.000477345 0
-7.82772e-06 0.000317989 0
-7.95873e-06 0.000397422 0
-1.56607e-05 0.00031801 0
-1.59199e-05 0.000397429 0
-7.95873e-06 0.000397422 0
-7.99114e-06 0.000477345 0
-1.59199e-05 0.000397429 0
-1.5983e-05 0.000477347 0
-1.37849e-05 0.000167455 0
-1.50141e-05 0.000240543 0
-2.07044e-05 0.000167588 0
-2.254e-05 0.000240618 0
-1.50141e-05 0.000240543 0
-1.56607e-05 0.00031801 0
-2.254e-05 0.000240618 0
-2.35042e-05 0.000318045 0
-2.07044e-05 0.000167588 0
-2.254e-05 0.000240618 0
-2.76518e-05 0.000167771 0
-3.00898e-05 0.000240723 0
-2.254e-05 0.000240618 0
-2.35042e-05 0.000318045 0
-3.00898e-05 0.000240723 0
-3.13631e-05 0.000318093 0
-1.56607e-05 0.00031801 0
-1.59199e-05 0.000397429 0
-2.35042e-05 0.000318045 0
-2.38861e-05 0.000397439 0
-1.59199e-05 0.000397429 0
-1.5983e-05 0.000477347 0
-2.38861e-05 0.000397439 0
-2.3976e-05 0.00047735 0
-2.35042e-05 0.000318045 0
-2.38861e-05 0.000397439 0
-3.13631e-05 0.000318093 0
-3.18597e-05 0.000397454 0
-2.38861e-05 0.000397439 0
-2.3976e-05 0.00047735 0
-3.18597e-05 0.000397454 0
-3.19708e-05 0.000477353 0
