# vtk DataFile Version 3.0
#This file was generated by the deal.II library on 2025/3/10 at 16:31:34
ASCII
DATASET UNSTRUCTURED_GRID

FIELD FieldData 1
TIME 1 1 double
1.55167
POINTS 256 double
0 0 0
0.625 0 0
0 0.0625 0
0.625 0.0625 0
0.625 0 0
1.25 0 0
0.625 0.0625 0
1.25 0.0625 0
0 0.0625 0
0.625 0.0625 0
0 0.125 0
0.625 0.125 0
0.625 0.0625 0
1.25 0.0625 0
0.625 0.125 0
1.25 0.125 0
1.25 0 0
1.875 0 0
1.25 0.0625 0
1.875 0.0625 0
1.875 0 0
2.5 0 0
1.875 0.0625 0
2.5 0.0625 0
1.25 0.0625 0
1.875 0.0625 0
1.25 0.125 0
1.875 0.125 0
1.875 0.0625 0
2.5 0.0625 0
1.875 0.125 0
2.5 0.125 0
0 0.125 0
0.625 0.125 0
0 0.1875 0
0.625 0.1875 0
0.625 0.125 0
1.25 0.125 0
0.625 0.1875 0
1.25 0.1875 0
0 0.1875 0
0.625 0.1875 0
0 0.25 0
0.625 0.25 0
0.625 0.1875 0
1.25 0.1875 0
0.625 0.25 0
1.25 0.25 0
1.25 0.125 0
1.875 0.125 0
1.25 0.1875 0
1.875 0.1875 0
1.875 0.125 0
2.5 0.125 0
1.875 0.1875 0
2.5 0.1875 0
1.25 0.1875 0
1.875 0.1875 0
1.25 0.25 0
1.875 0.25 0
1.875 0.1875 0
2.5 0.1875 0
1.875 0.25 0
2.5 0.25 0
2.5 0 0
3.125 0 0
2.5 0.0625 0
3.125 0.0625 0
3.125 0 0
3.75 0 0
3.125 0.0625 0
3.75 0.0625 0
2.5 0.0625 0
3.125 0.0625 0
2.5 0.125 0
3.125 0.125 0
3.125 0.0625 0
3.75 0.0625 0
3.125 0.125 0
3.75 0.125 0
3.75 0 0
4.375 0 0
3.75 0.0625 0
4.375 0.0625 0
4.375 0 0
5 0 0
4.375 0.0625 0
5 0.0625 0
3.75 0.0625 0
4.375 0.0625 0
3.75 0.125 0
4.375 0.125 0
4.375 0.0625 0
5 0.0625 0
4.375 0.125 0
5 0.125 0
2.5 0.125 0
3.125 0.125 0
2.5 0.1875 0
3.125 0.1875 0
3.125 0.125 0
3.75 0.125 0
3.125 0.1875 0
3.75 0.1875 0
2.5 0.1875 0
3.125 0.1875 0
2.5 0.25 0
3.125 0.25 0
3.125 0.1875 0
3.75 0.1875 0
3.125 0.25 0
3.75 0.25 0
3.75 0.125 0
4.375 0.125 0
3.75 0.1875 0
4.375 0.1875 0
4.375 0.125 0
5 0.125 0
4.375 0.1875 0
5 0.1875 0
3.75 0.1875 0
4.375 0.1875 0
3.75 0.25 0
4.375 0.25 0
4.375 0.1875 0
5 0.1875 0
4.375 0.25 0
5 0.25 0
0 0.25 0
0.625 0.25 0
0 0.3125 0
0.625 0.3125 0
0.625 0.25 0
1.25 0.25 0
0.625 0.3125 0
1.25 0.3125 0
0 0.3125 0
0.625 0.3125 0
0 0.375 0
0.625 0.375 0
0.625 0.3125 0
1.25 0.3125 0
0.625 0.375 0
1.25 0.375 0
1.25 0.25 0
1.875 0.25 0
1.25 0.3125 0
1.875 0.3125 0
1.875 0.25 0
2.5 0.25 0
1.875 0.3125 0
2.5 0.3125 0
1.25 0.3125 0
1.875 0.3125 0
1.25 0.375 0
1.875 0.375 0
1.875 0.3125 0
2.5 0.3125 0
1.875 0.375 0
2.5 0.375 0
0 0.375 0
0.625 0.375 0
0 0.4375 0
0.625 0.4375 0
0.625 0.375 0
1.25 0.375 0
0.625 0.4375 0
1.25 0.4375 0
0 0.4375 0
0.625 0.4375 0
0 0.5 0
0.625 0.5 0
0.625 0.4375 0
1.25 0.4375 0
0.625 0.5 0
1.25 0.5 0
1.25 0.375 0
1.875 0.375 0
1.25 0.4375 0
1.875 0.4375 0
1.875 0.375 0
2.5 0.375 0
1.875 0.4375 0
2.5 0.4375 0
1.25 0.4375 0
1.875 0.4375 0
1.25 0.5 0
1.875 0.5 0
1.875 0.4375 0
2.5 0.4375 0
1.875 0.5 0
2.5 0.5 0
2.5 0.25 0
3.125 0.25 0
2.5 0.3125 0
3.125 0.3125 0
3.125 0.25 0
3.75 0.25 0
3.125 0.3125 0
3.75 0.3125 0
2.5 0.3125 0
3.125 0.3125 0
2.5 0.375 0
3.125 0.375 0
3.125 0.3125 0
3.75 0.3125 0
3.125 0.375 0
3.75 0.375 0
3.75 0.25 0
4.375 0.25 0
3.75 0.3125 0
4.375 0.3125 0
4.375 0.25 0
5 0.25 0
4.375 0.3125 0
5 0.3125 0
3.75 0.3125 0
4.375 0.3125 0
3.75 0.375 0
4.375 0.375 0
4.375 0.3125 0
5 0.3125 0
4.375 0.375 0
5 0.375 0
2.5 0.375 0
3.125 0.375 0
2.5 0.4375 0
3.125 0.4375 0
3.125 0.375 0
3.75 0.375 0
3.125 0.4375 0
3.75 0.4375 0
2.5 0.4375 0
3.125 0.4375 0
2.5 0.5 0
3.125 0.5 0
3.125 0.4375 0
3.75 0.4375 0
3.125 0.5 0
3.75 0.5 0
3.75 0.375 0
4.375 0.375 0
3.75 0.4375 0
4.375 0.4375 0
4.375 0.375 0
5 0.375 0
4.375 0.4375 0
5 0.4375 0
3.75 0.4375 0
4.375 0.4375 0
3.75 0.5 0
4.375 0.5 0
4.375 0.4375 0
5 0.4375 0
4.375 0.5 0
5 0.5 0

CELLS 64 320
4	0	1	3	2
4	4	5	7	6
4	8	9	11	10
4	12	13	15	14
4	16	17	19	18
4	20	21	23	22
4	24	25	27	26
4	28	29	31	30
4	32	33	35	34
4	36	37	39	38
4	40	41	43	42
4	44	45	47	46
4	48	49	51	50
4	52	53	55	54
4	56	57	59	58
4	60	61	63	62
4	64	65	67	66
4	68	69	71	70
4	72	73	75	74
4	76	77	79	78
4	80	81	83	82
4	84	85	87	86
4	88	89	91	90
4	92	93	95	94
4	96	97	99	98
4	100	101	103	102
4	104	105	107	106
4	108	109	111	110
4	112	113	115	114
4	116	117	119	118
4	120	121	123	122
4	124	125	127	126
4	128	129	131	130
4	132	133	135	134
4	136	137	139	138
4	140	141	143	142
4	144	145	147	146
4	148	149	151	150
4	152	153	155	154
4	156	157	159	158
4	160	161	163	162
4	164	165	167	166
4	168	169	171	170
4	172	173	175	174
4	176	177	179	178
4	180	181	183	182
4	184	185	187	186
4	188	189	191	190
4	192	193	195	194
4	196	197	199	198
4	200	201	203	202
4	204	205	207	206
4	208	209	211	210
4	212	213	215	214
4	216	217	219	218
4	220	221	223	222
4	224	225	227	226
4	228	229	231	230
4	232	233	235	234
4	236	237	239	238
4	240	241	243	242
4	244	245	247	246
4	248	249	251	250
4	252	253	255	254

CELL_TYPES 64
 9 9 9 9 9 9 9 9 9 9 9 9 9 9 9 9 9 9 9 9 9 9 9 9 9 9 9 9 9 9 9 9 9 9 9 9 9 9 9 9 9 9 9 9 9 9 9 9 9 9 9 9 9 9 9 9 9 9 9 9 9 9 9 9
POINT_DATA 256
VECTORS displacement double
0 0 0
1.42463e-05 2.22832e-05 0
0 0 0
1.04154e-05 2.12481e-05 0
1.42463e-05 2.22832e-05 0
2.71393e-05 7.59169e-05 0
1.04154e-05 2.12481e-05 0
2.03285e-05 7.53197e-05 0
0 0 0
1.04154e-05 2.12481e-05 0
0 0 0
6.82804e-06 2.05156e-05 0
1.04154e-05 2.12481e-05 0
2.03285e-05 7.53197e-05 0
6.82804e-06 2.05156e-05 0
1.35288e-05 7.48817e-05 0
2.71393e-05 7.59169e-05 0
3.62017e-05 0.000156994 0
2.03285e-05 7.53197e-05 0
2.70685e-05 0.000156551 0
3.62017e-05 0.000156994 0
4.22995e-05 0.000256642 0
2.70685e-05 0.000156551 0
3.16719e-05 0.000256362 0
2.03285e-05 7.53197e-05 0
2.70685e-05 0.000156551 0
1.35288e-05 7.48817e-05 0
1.8012e-05 0.000156239 0
2.70685e-05 0.000156551 0
3.16719e-05 0.000256362 0
1.8012e-05 0.000156239 0
2.10871e-05 0.000256159 0
0 0 0
6.82804e-06 2.05156e-05 0
0 0 0
3.38162e-06 2.00792e-05 0
6.82804e-06 2.05156e-05 0
1.35288e-05 7.48817e-05 0
3.38162e-06 2.00792e-05 0
6.75548e-06 7.46147e-05 0
0 0 0
3.38162e-06 2.00792e-05 0
0 0 0
-7.16653e-19 1.99342e-05 0
3.38162e-06 2.00792e-05 0
6.75548e-06 7.46147e-05 0
-7.16653e-19 1.99342e-05 0
-1.70752e-18 7.4525e-05 0
1.35288e-05 7.48817e-05 0
1.8012e-05 0.000156239 0
6.75548e-06 7.46147e-05 0
8.99685e-06 0.000156053 0
1.8012e-05 0.000156239 0
2.10871e-05 0.000256159 0
8.99685e-06 0.000156053 0
1.0535e-05 0.000256036 0
6.75548e-06 7.46147e-05 0
8.99685e-06 0.000156053 0
-1.70752e-18 7.4525e-05 0
-2.78439e-18 0.000155992 0
8.99685e-06 0.000156053 0
1.0535e-05 0.000256036 0
-2.78439e-18 0.000155992 0
-3.45874e-18 0.000255995 0
4.22995e-05 0.000256642 0
4.6029e-05 0.000368239 0
3.16719e-05 0.000256362 0
3.44798e-05 0.000368078 0
4.6029e-05 0.000368239 0
4.79767e-05 0.000486593 0
3.44798e-05 0.000368078 0
3.59548e-05 0.000486519 0
3.16719e-05 0.000256362 0
3.44798e-05 0.000368078 0
2.10871e-05 0.000256159 0
2.29673e-05 0.000367963 0
3.44798e-05 0.000368078 0
3.59548e-05 0.000486519 0
2.29673e-05 0.000367963 0
2.39565e-05 0.000486466 0
4.79767e-05 0.000486593 0
4.87364e-05 0.000607993 0
3.59548e-05 0.000486519 0
3.6539e-05 0.000607971 0
4.87364e-05 0.000607993 0
4.89064e-05 0.000730216 0
3.6539e-05 0.000607971 0
3.66766e-05 0.000730211 0
3.59548e-05 0.000486519 0
3.6539e-05 0.000607971 0
2.39565e-05 0.000486466 0
2.43531e-05 0.000607954 0
3.6539e-05 0.000607971 0
3.66766e-05 0.000730211 0
2.43531e-05 0.000607954 0
2.44494e-05 0.000730207 0
2.10871e-05 0.000256159 0
2.29673e-05 0.000367963 0
1.0535e-05 0.000256036 0
1.1478e-05 0.000367894 0
2.29673e-05 0.000367963 0
2.39565e-05 0.000486466 0
1.1478e-05 0.000367894 0
1.19742e-05 0.000486433 0
1.0535e-05 0.000256036 0
1.1478e-05 0.000367894 0
-3.45874e-18 0.000255995 0
-4.00221e-18 0.00036787 0
1.1478e-05 0.000367894 0
1.19742e-05 0.000486433 0
-4.00221e-18 0.00036787 0
-4.5345e-18 0.000486422 0
2.39565e-05 0.000486466 0
2.43531e-05 0.000607954 0
1.19742e-05 0.000486433 0
1.21746e-05 0.000607944 0
2.43531e-05 0.000607954 0
2.44494e-05 0.000730207 0
1.21746e-05 0.000607944 0
1.22242e-05 0.000730204 0
1.19742e-05 0.000486433 0
1.21746e-05 0.000607944 0
-4.5345e-18 0.000486422 0
-4.78765e-18 0.000607941 0
1.21746e-05 0.000607944 0
1.22242e-05 0.000730204 0
-4.78765e-18 0.000607941 0
-4.7182e-18 0.000730203 0
0 0 0
-7.16653e-19 1.99342e-05 0
0 0 0
-3.38162e-06 2.00792e-05 0
-7.16653e-19 1.99342e-05 0
-1.70752e-18 7.4525e-05 0
-3.38162e-06 2.00792e-05 0
-6.75548e-06 7.46147e-05 0
0 0 0
-3.38162e-06 2.00792e-05 0
0 0 0
-6.82804e-06 2.05156e-05 0
-3.38162e-06 2.00792e-05 0
-6.75548e-06 7.46147e-05 0
-6.82804e-06 2.05156e-05 0
-1.35288e-05 7.48817e-05 0
-1.70752e-18 7.4525e-05 0
-2.78439e-18 0.000155992 0
-6.75548e-06 7.46147e-05 0
-8.99685e-06 0.000156053 0
-2.78439e-18 0.000155992 0
-3.45874e-18 0.000255995 0
-8.99685e-06 0.000156053 0
-1.0535e-05 0.000256036 0
-6.75548e-06 7.46147e-05 0
-8.99685e-06 0.000156053 0
-1.35288e-05 7.48817e-05 0
-1.8012e-05 0.000156239 0
-8.99685e-06 0.000156053 0
-1.0535e-05 0.000256036 0
-1.8012e-05 0.000156239 0
-2.10871e-05 0.000256159 0
0 0 0
-6.82804e-06 2.05156e-05 0
0 0 0
-1.04154e-05 2.12481e-05 0
-6.82804e-06 2.05156e-05 0
-1.35288e-05 7.48817e-05 0
-1.04154e-05 2.12481e-05 0
-2.03285e-05 7.53197e-05 0
0 0 0
-1.04154e-05 2.12481e-05 0
0 0 0
-1.42463e-05 2.22832e-05 0
-1.04154e-05 2.12481e-05 0
-2.03285e-05 7.53197e-05 0
-1.42463e-05 2.22832e-05 0
-2.71393e-05 7.59169e-05 0
-1.35288e-05 7.48817e-05 0
-1.8012e-05 0.000156239 0
-2.03285e-05 7.53197e-05 0
-2.70685e-05 0.000156551 0
-1.8012e-05 0.000156239 0
-2.10871e-05 0.000256159 0
-2.70685e-05 0.000156551 0
-3.16719e-05 0.000256362 0
-2.03285e-05 7.53197e-05 0
-2.70685e-05 0.000156551 0
-2.71393e-05 7.59169e-05 0
-3.62017e-05 0.000156994 0
-2.70685e-05 0.000156551 0
-3.16719e-05 0.000256362 0
-3.62017e-05 0.000156994 0
-4.22995e-05 0.000256642 0
-3.45874e-18 0.000255995 0
-4.00221e-18 0.00036787 0
-1.0535e-05 0.000256036 0
-1.1478e-05 0.000367894 0
-4.00221e-18 0.00036787 0
-4.5345e-18 0.000486422 0
-1.1478e-05 0.000367894 0
-1.19742e-05 0.000486433 0
-1.0535e-05 0.000256036 0
-1.1478e-05 0.000367894 0
-2.10871e-05 0.000256159 0
-2.29673e-05 0.000367963 0
-1.1478e-05 0.000367894 0
-1.19742e-05 0.000486433 0
-2.29673e-05 0.000367963 0
-2.39565e-05 0.000486466 0
-4.5345e-18 0.000486422 0
-4.78765e-18 0.000607941 0
-1.19742e-05 0.000486433 0
-1.21746e-05 0.000607944 0
-4.78765e-18 0.000607941 0
-4.7182e-18 0.000730203 0
-1.21746e-05 0.000607944 0
-1.22242e-05 0.000730204 0
-1.19742e-05 0.000486433 0
-1.21746e-05 0.000607944 0
-2.39565e-05 0.000486466 0
-2.43531e-05 0.000607954 0
-1.21746e-05 0.000607944 0
-1.22242e-05 0.000730204 0
-2.43531e-05 0.000607954 0
-2.44494e-05 0.000730207 0
-2.10871e-05 0.000256159 0
-2.29673e-05 0.000367963 0
-3.16719e-05 0.000256362 0
-3.44798e-05 0.000368078 0
-2.29673e-05 0.000367963 0
-2.39565e-05 0.000486466 0
-3.44798e-05 0.000368078 0
-3.59548e-05 0.000486519 0
-3.16719e-05 0.000256362 0
-3.44798e-05 0.000368078 0
-4.22995e-05 0.000256642 0
-4.6029e-05 0.000368239 0
-3.44798e-05 0.000368078 0
-3.59548e-05 0.000486519 0
-4.6029e-05 0.000368239 0
-4.79767e-05 0.000486593 0
-2.39565e-05 0.000486466 0
-2.43531e-05 0.000607954 0
-3.59548e-05 0.000486519 0
-3.6539e-05 0.000607971 0
-2.43531e-05 0.000607954 0
-2.44494e-05 0.000730207 0
-3.6539e-05 0.000607971 0
-3.66766e-05 0.000730211 0
-3.59548e-05 0.000486519 0
-3.6539e-05 0.000607971 0
-4.79767e-05 0.000486593 0
-4.87364e-05 0.000607993 0
-3.6539e-05 0.000607971 0
-3.66766e-05 0.000730211 0
-4.87364e-05 0.000607993 0
-4.89064e-05 0.000730216 0
VECTORS velocity double
0 0 0
4.46645e-07 6.98605e-07 0
0 0 0
3.26539e-07 6.66152e-07 0
4.46645e-07 6.98605e-07 0
8.5087e-07 2.38012e-06 0
3.26539e-07 6.66152e-07 0
6.37338e-07 2.36139e-06 0
0 0 0
3.26539e-07 6.66152e-07 0
0 0 0
2.14071e-07 6.43188e-07 0
3.26539e-07 6.66152e-07 0
6.37338e-07 2.36139e-06 0
2.14071e-07 6.43188e-07 0
4.24155e-07 2.34766e-06 0
8.5087e-07 2.38012e-06 0
1.13501e-06 4.92207e-06 0
6.37338e-07 2.36139e-06 0
8.48659e-07 4.90818e-06 0
1.13501e-06 4.92207e-06 0
1.3262e-06 8.04628e-06 0
8.48659e-07 4.90818e-06 0
9.92995e-07 8.03749e-06 0
6.37338e-07 2.36139e-06 0
8.48659e-07 4.90818e-06 0
4.24155e-07 2.34766e-06 0
5.6472e-07 4.8984e-06 0
8.48659e-07 4.90818e-06 0
9.92995e-07 8.03749e-06 0
5.6472e-07 4.8984e-06 0
6.61135e-07 8.03112e-06 0
0 0 0
2.14071e-07 6.43188e-07 0
0 0 0
1.0602e-07 6.29505e-07 0
2.14071e-07 6.43188e-07 0
4.24155e-07 2.34766e-06 0
1.0602e-07 6.29505e-07 0
2.11798e-07 2.33929e-06 0
0 0 0
1.0602e-07 6.29505e-07 0
0 0 0
-1.84426e-18 6.2496e-07 0
1.0602e-07 6.29505e-07 0
2.11798e-07 2.33929e-06 0
-1.84426e-18 6.2496e-07 0
-4.82196e-18 2.33648e-06 0
4.24155e-07 2.34766e-06 0
5.6472e-07 4.8984e-06 0
2.11798e-07 2.33929e-06 0
2.82072e-07 4.89257e-06 0
5.6472e-07 4.8984e-06 0
6.61135e-07 8.03112e-06 0
2.82072e-07 4.89257e-06 0
3.30299e-07 8.02728e-06 0
2.11798e-07 2.33929e-06 0
2.82072e-07 4.89257e-06 0
-4.82196e-18 2.33648e-06 0
-2.82471e-17 4.89063e-06 0
2.82072e-07 4.89257e-06 0
3.30299e-07 8.02728e-06 0
-2.82471e-17 4.89063e-06 0
-2.97149e-17 8.026e-06 0
1.3262e-06 8.04628e-06 0
1.44314e-06 1.15451e-05 0
9.92995e-07 8.03749e-06 0
1.08104e-06 1.15401e-05 0
1.44314e-06 1.15451e-05 0
1.50421e-06 1.52559e-05 0
1.08104e-06 1.15401e-05 0
1.12729e-06 1.52536e-05 0
9.92995e-07 8.03749e-06 0
1.08104e-06 1.15401e-05 0
6.61135e-07 8.03112e-06 0
7.2009e-07 1.15365e-05 0
1.08104e-06 1.15401e-05 0
1.12729e-06 1.52536e-05 0
7.2009e-07 1.15365e-05 0
7.51106e-07 1.52519e-05 0
1.50421e-06 1.52559e-05 0
1.52803e-06 1.90621e-05 0
1.12729e-06 1.52536e-05 0
1.14561e-06 1.90614e-05 0
1.52803e-06 1.90621e-05 0
1.53336e-06 2.28942e-05 0
1.14561e-06 1.90614e-05 0
1.14992e-06 2.2894e-05 0
1.12729e-06 1.52536e-05 0
1.14561e-06 1.90614e-05 0
7.51106e-07 1.52519e-05 0
7.63541e-07 1.90609e-05 0
1.14561e-06 1.90614e-05 0
1.14992e-06 2.2894e-05 0
7.63541e-07 1.90609e-05 0
7.66564e-07 2.28939e-05 0
6.61135e-07 8.03112e-06 0
7.2009e-07 1.15365e-05 0
3.30299e-07 8.02728e-06 0
3.59867e-07 1.15343e-05 0
7.2009e-07 1.15365e-05 0
7.51106e-07 1.52519e-05 0
3.59867e-07 1.15343e-05 0
3.75427e-07 1.52509e-05 0
3.30299e-07 8.02728e-06 0
3.59867e-07 1.15343e-05 0
-2.97149e-17 8.026e-06 0
9.98315e-18 1.15336e-05 0
3.59867e-07 1.15343e-05 0
3.75427e-07 1.52509e-05 0
9.98315e-18 1.15336e-05 0
5.04264e-17 1.52505e-05 0
7.51106e-07 1.52519e-05 0
7.63541e-07 1.90609e-05 0
3.75427e-07 1.52509e-05 0
3.81711e-07 1.90606e-05 0
7.63541e-07 1.90609e-05 0
7.66564e-07 2.28939e-05 0
3.81711e-07 1.90606e-05 0
3.83266e-07 2.28938e-05 0
3.75427e-07 1.52509e-05 0
3.81711e-07 1.90606e-05 0
5.04264e-17 1.52505e-05 0
7.64959e-17 1.90605e-05 0
3.81711e-07 1.90606e-05 0
3.83266e-07 2.28938e-05 0
7.64959e-17 1.90605e-05 0
8.96457e-17 2.28938e-05 0
0 0 0
-1.84426e-18 6.2496e-07 0
0 0 0
-1.0602e-07 6.29505e-07 0
-1.84426e-18 6.2496e-07 0
-4.82196e-18 2.33648e-06 0
-1.0602e-07 6.29505e-07 0
-2.11798e-07 2.33929e-06 0
0 0 0
-1.0602e-07 6.29505e-07 0
0 0 0
-2.14071e-07 6.43188e-07 0
-1.0602e-07 6.29505e-07 0
-2.11798e-07 2.33929e-06 0
-2.14071e-07 6.43188e-07 0
-4.24155e-07 2.34766e-06 0
-4.82196e-18 2.33648e-06 0
-2.82471e-17 4.89063e-06 0
-2.11798e-07 2.33929e-06 0
-2.82072e-07 4.89257e-06 0
-2.82471e-17 4.89063e-06 0
-2.97149e-17 8.026e-06 0
-2.82072e-07 4.89257e-06 0
-3.30299e-07 8.02728e-06 0
-2.11798e-07 2.33929e-06 0
-2.82072e-07 4.89257e-06 0
-4.24155e-07 2.34766e-06 0
-5.6472e-07 4.8984e-06 0
-2.82072e-07 4.89257e-06 0
-3.30299e-07 8.02728e-06 0
-5.6472e-07 4.8984e-06 0
-6.61135e-07 8.03112e-06 0
0 0 0
-2.14071e-07 6.43188e-07 0
0 0 0
-3.26539e-07 6.66152e-07 0
-2.14071e-07 6.43188e-07 0
-4.24155e-07 2.34766e-06 0
-3.26539e-07 6.66152e-07 0
-6.37338e-07 2.36139e-06 0
0 0 0
-3.26539e-07 6.66152e-07 0
0 0 0
-4.46645e-07 6.98605e-07 0
-3.26539e-07 6.66152e-07 0
-6.37338e-07 2.36139e-06 0
-4.46645e-07 6.98605e-07 0
-8.5087e-07 2.38012e-06 0
-4.24155e-07 2.34766e-06 0
-5.6472e-07 4.8984e-06 0
-6.37338e-07 2.36139e-06 0
-8.48659e-07 4.90818e-06 0
-5.6472e-07 4.8984e-06 0
-6.61135e-07 8.03112e-06 0
-8.48659e-07 4.90818e-06 0
-9.92995e-07 8.03749e-06 0
-6.37338e-07 2.36139e-06 0
-8.48659e-07 4.90818e-06 0
-8.5087e-07 2.38012e-06 0
-1.13501e-06 4.92207e-06 0
-8.48659e-07 4.90818e-06 0
-9.92995e-07 8.03749e-06 0
-1.13501e-06 4.92207e-06 0
-1.3262e-06 8.04628e-06 0
-2.97149e-17 8.026e-06 0
9.98315e-18 1.15336e-05 0
-3.30299e-07 8.02728e-06 0
-3.59867e-07 1.15343e-05 0
9.98315e-18 1.15336e-05 0
5.04264e-17 1.52505e-05 0
-3.59867e-07 1.15343e-05 0
-3.75427e-07 1.52509e-05 0
-3.30299e-07 8.02728e-06 0
-3.59867e-07 1.15343e-05 0
-6.61135e-07 8.03112e-06 0
-7.2009e-07 1.15365e-05 0
-3.59867e-07 1.15343e-05 0
-3.75427e-07 1.52509e-05 0
-7.2009e-07 1.15365e-05 0
-7.51106e-07 1.52519e-05 0
5.04264e-17 1.52505e-05 0
7.64959e-17 1.90605e-05 0
-3.75427e-07 1.52509e-05 0
-3.81711e-07 1.90606e-05 0
7.64959e-17 1.90605e-05 0
8.96457e-17 2.28938e-05 0
-3.81711e-07 1.90606e-05 0
-3.83266e-07 2.28938e-05 0
-3.75427e-07 1.52509e-05 0
-3.81711e-07 1.90606e-05 0
-7.51106e-07 1.52519e-05 0
-7.63541e-07 1.90609e-05 0
-3.81711e-07 1.90606e-05 0
-3.83266e-07 2.28938e-05 0
-7.63541e-07 1.90609e-05 0
-7.66564e-07 2.28939e-05 0
-6.61135e-07 8.03112e-06 0
-7.2009e-07 1.15365e-05 0
-9.92995e-07 8.03749e-06 0
-1.08104e-06 1.15401e-05 0
-7.2009e-07 1.15365e-05 0
-7.51106e-07 1.52519e-05 0
-1.08104e-06 1.15401e-05 0
-1.12729e-06 1.52536e-05 0
-9.92995e-07 8.03749e-06 0
-1.08104e-06 1.15401e-05 0
-1.3262e-06 8.04628e-06 0
-1.44314e-06 1.15451e-05 0
-1.08104e-06 1.15401e-05 0
-1.12729e-06 1.52536e-05 0
-1.44314e-06 1.15451e-05 0
-1.50421e-06 1.52559e-05 0
-7.51106e-07 1.52519e-05 0
-7.63541e-07 1.90609e-05 0
-1.12729e-06 1.52536e-05 0
-1.14561e-06 1.90614e-05 0
-7.63541e-07 1.90609e-05 0
-7.66564e-07 2.28939e-05 0
-1.14561e-06 1.90614e-05 0
-1.14992e-06 2.2894e-05 0
-1.12729e-06 1.52536e-05 0
-1.14561e-06 1.90614e-05 0
-1.50421e-06 1.52559e-05 0
-1.52803e-06 1.90621e-05 0
-1.14561e-06 1.90614e-05 0
-1.14992e-06 2.2894e-05 0
-1.52803e-06 1.90621e-05 0
-1.53336e-06 2.28942e-05 0
