# vtk DataFile Version 3.0
#This file was generated by the deal.II library on 2025/3/10 at 16:32:06
ASCII
DATASET UNSTRUCTURED_GRID

FIELD FieldData 1
TIME 1 1 double
2.06482
POINTS 256 double
0 0 0
0.625 0 0
0 0.0625 0
0.625 0.0625 0
0.625 0 0
1.25 0 0
0.625 0.0625 0
1.25 0.0625 0
0 0.0625 0
0.625 0.0625 0
0 0.125 0
0.625 0.125 0
0.625 0.0625 0
1.25 0.0625 0
0.625 0.125 0
1.25 0.125 0
1.25 0 0
1.875 0 0
1.25 0.0625 0
1.875 0.0625 0
1.875 0 0
2.5 0 0
1.875 0.0625 0
2.5 0.0625 0
1.25 0.0625 0
1.875 0.0625 0
1.25 0.125 0
1.875 0.125 0
1.875 0.0625 0
2.5 0.0625 0
1.875 0.125 0
2.5 0.125 0
0 0.125 0
0.625 0.125 0
0 0.1875 0
0.625 0.1875 0
0.625 0.125 0
1.25 0.125 0
0.625 0.1875 0
1.25 0.1875 0
0 0.1875 0
0.625 0.1875 0
0 0.25 0
0.625 0.25 0
0.625 0.1875 0
1.25 0.1875 0
0.625 0.25 0
1.25 0.25 0
1.25 0.125 0
1.875 0.125 0
1.25 0.1875 0
1.875 0.1875 0
1.875 0.125 0
2.5 0.125 0
1.875 0.1875 0
2.5 0.1875 0
1.25 0.1875 0
1.875 0.1875 0
1.25 0.25 0
1.875 0.25 0
1.875 0.1875 0
2.5 0.1875 0
1.875 0.25 0
2.5 0.25 0
2.5 0 0
3.125 0 0
2.5 0.0625 0
3.125 0.0625 0
3.125 0 0
3.75 0 0
3.125 0.0625 0
3.75 0.0625 0
2.5 0.0625 0
3.125 0.0625 0
2.5 0.125 0
3.125 0.125 0
3.125 0.0625 0
3.75 0.0625 0
3.125 0.125 0
3.75 0.125 0
3.75 0 0
4.375 0 0
3.75 0.0625 0
4.375 0.0625 0
4.375 0 0
5 0 0
4.375 0.0625 0
5 0.0625 0
3.75 0.0625 0
4.375 0.0625 0
3.75 0.125 0
4.375 0.125 0
4.375 0.0625 0
5 0.0625 0
4.375 0.125 0
5 0.125 0
2.5 0.125 0
3.125 0.125 0
2.5 0.1875 0
3.125 0.1875 0
3.125 0.125 0
3.75 0.125 0
3.125 0.1875 0
3.75 0.1875 0
2.5 0.1875 0
3.125 0.1875 0
2.5 0.25 0
3.125 0.25 0
3.125 0.1875 0
3.75 0.1875 0
3.125 0.25 0
3.75 0.25 0
3.75 0.125 0
4.375 0.125 0
3.75 0.1875 0
4.375 0.1875 0
4.375 0.125 0
5 0.125 0
4.375 0.1875 0
5 0.1875 0
3.75 0.1875 0
4.375 0.1875 0
3.75 0.25 0
4.375 0.25 0
4.375 0.1875 0
5 0.1875 0
4.375 0.25 0
5 0.25 0
0 0.25 0
0.625 0.25 0
0 0.3125 0
0.625 0.3125 0
0.625 0.25 0
1.25 0.25 0
0.625 0.3125 0
1.25 0.3125 0
0 0.3125 0
0.625 0.3125 0
0 0.375 0
0.625 0.375 0
0.625 0.3125 0
1.25 0.3125 0
0.625 0.375 0
1.25 0.375 0
1.25 0.25 0
1.875 0.25 0
1.25 0.3125 0
1.875 0.3125 0
1.875 0.25 0
2.5 0.25 0
1.875 0.3125 0
2.5 0.3125 0
1.25 0.3125 0
1.875 0.3125 0
1.25 0.375 0
1.875 0.375 0
1.875 0.3125 0
2.5 0.3125 0
1.875 0.375 0
2.5 0.375 0
0 0.375 0
0.625 0.375 0
0 0.4375 0
0.625 0.4375 0
0.625 0.375 0
1.25 0.375 0
0.625 0.4375 0
1.25 0.4375 0
0 0.4375 0
0.625 0.4375 0
0 0.5 0
0.625 0.5 0
0.625 0.4375 0
1.25 0.4375 0
0.625 0.5 0
1.25 0.5 0
1.25 0.375 0
1.875 0.375 0
1.25 0.4375 0
1.875 0.4375 0
1.875 0.375 0
2.5 0.375 0
1.875 0.4375 0
2.5 0.4375 0
1.25 0.4375 0
1.875 0.4375 0
1.25 0.5 0
1.875 0.5 0
1.875 0.4375 0
2.5 0.4375 0
1.875 0.5 0
2.5 0.5 0
2.5 0.25 0
3.125 0.25 0
2.5 0.3125 0
3.125 0.3125 0
3.125 0.25 0
3.75 0.25 0
3.125 0.3125 0
3.75 0.3125 0
2.5 0.3125 0
3.125 0.3125 0
2.5 0.375 0
3.125 0.375 0
3.125 0.3125 0
3.75 0.3125 0
3.125 0.375 0
3.75 0.375 0
3.75 0.25 0
4.375 0.25 0
3.75 0.3125 0
4.375 0.3125 0
4.375 0.25 0
5 0.25 0
4.375 0.3125 0
5 0.3125 0
3.75 0.3125 0
4.375 0.3125 0
3.75 0.375 0
4.375 0.375 0
4.375 0.3125 0
5 0.3125 0
4.375 0.375 0
5 0.375 0
2.5 0.375 0
3.125 0.375 0
2.5 0.4375 0
3.125 0.4375 0
3.125 0.375 0
3.75 0.375 0
3.125 0.4375 0
3.75 0.4375 0
2.5 0.4375 0
3.125 0.4375 0
2.5 0.5 0
3.125 0.5 0
3.125 0.4375 0
3.75 0.4375 0
3.125 0.5 0
3.75 0.5 0
3.75 0.375 0
4.375 0.375 0
3.75 0.4375 0
4.375 0.4375 0
4.375 0.375 0
5 0.375 0
4.375 0.4375 0
5 0.4375 0
3.75 0.4375 0
4.375 0.4375 0
3.75 0.5 0
4.375 0.5 0
4.375 0.4375 0
5 0.4375 0
4.375 0.5 0
5 0.5 0

CELLS 64 320
4	0	1	3	2
4	4	5	7	6
4	8	9	11	10
4	12	13	15	14
4	16	17	19	18
4	20	21	23	22
4	24	25	27	26
4	28	29	31	30
4	32	33	35	34
4	36	37	39	38
4	40	41	43	42
4	44	45	47	46
4	48	49	51	50
4	52	53	55	54
4	56	57	59	58
4	60	61	63	62
4	64	65	67	66
4	68	69	71	70
4	72	73	75	74
4	76	77	79	78
4	80	81	83	82
4	84	85	87	86
4	88	89	91	90
4	92	93	95	94
4	96	97	99	98
4	100	101	103	102
4	104	105	107	106
4	108	109	111	110
4	112	113	115	114
4	116	117	119	118
4	120	121	123	122
4	124	125	127	126
4	128	129	131	130
4	132	133	135	134
4	136	137	139	138
4	140	141	143	142
4	144	145	147	146
4	148	149	151	150
4	152	153	155	154
4	156	157	159	158
4	160	161	163	162
4	164	165	167	166
4	168	169	171	170
4	172	173	175	174
4	176	177	179	178
4	180	181	183	182
4	184	185	187	186
4	188	189	191	190
4	192	193	195	194
4	196	197	199	198
4	200	201	203	202
4	204	205	207	206
4	208	209	211	210
4	212	213	215	214
4	216	217	219	218
4	220	221	223	222
4	224	225	227	226
4	228	229	231	230
4	232	233	235	234
4	236	237	239	238
4	240	241	243	242
4	244	245	247	246
4	248	249	251	250
4	252	253	255	254

CELL_TYPES 64
 9 9 9 9 9 9 9 9 9 9 9 9 9 9 9 9 9 9 9 9 9 9 9 9 9 9 9 9 9 9 9 9 9 9 9 9 9 9 9 9 9 9 9 9 9 9 9 9 9 9 9 9 9 9 9 9 9 9 9 9 9 9 9 9
POINT_DATA 256
VECTORS displacement double
0 0 0
1.25452e-05 1.96225e-05 0
0 0 0
9.17172e-06 1.8711e-05 0
1.25452e-05 1.96225e-05 0
2.38987e-05 6.68521e-05 0
9.17172e-06 1.8711e-05 0
1.79012e-05 6.63262e-05 0
0 0 0
9.17172e-06 1.8711e-05 0
0 0 0
6.01275e-06 1.8066e-05 0
9.17172e-06 1.8711e-05 0
1.79012e-05 6.63262e-05 0
6.01275e-06 1.8066e-05 0
1.19134e-05 6.59406e-05 0
2.38987e-05 6.68521e-05 0
3.18791e-05 0.000138249 0
1.79012e-05 6.63262e-05 0
2.38364e-05 0.000137859 0
3.18791e-05 0.000138249 0
3.72488e-05 0.000225998 0
2.38364e-05 0.000137859 0
2.78901e-05 0.000225751 0
1.79012e-05 6.63262e-05 0
2.38364e-05 0.000137859 0
1.19134e-05 6.59406e-05 0
1.58613e-05 0.000137584 0
2.38364e-05 0.000137859 0
2.78901e-05 0.000225751 0
1.58613e-05 0.000137584 0
1.85692e-05 0.000225573 0
0 0 0
6.01275e-06 1.8066e-05 0
0 0 0
2.97784e-06 1.76816e-05 0
6.01275e-06 1.8066e-05 0
1.19134e-05 6.59406e-05 0
2.97784e-06 1.76816e-05 0
5.94885e-06 6.57054e-05 0
0 0 0
2.97784e-06 1.76816e-05 0
0 0 0
-7.74041e-19 1.7554e-05 0
2.97784e-06 1.76816e-05 0
5.94885e-06 6.57054e-05 0
-7.74041e-19 1.7554e-05 0
-1.9093e-18 6.56264e-05 0
1.19134e-05 6.59406e-05 0
1.58613e-05 0.000137584 0
5.94885e-06 6.57054e-05 0
7.92259e-06 0.00013742 0
1.58613e-05 0.000137584 0
1.85692e-05 0.000225573 0
7.92259e-06 0.00013742 0
9.27708e-06 0.000225465 0
5.94885e-06 6.57054e-05 0
7.92259e-06 0.00013742 0
-1.9093e-18 6.56264e-05 0
-3.0042e-18 0.000137366 0
7.92259e-06 0.00013742 0
9.27708e-06 0.000225465 0
-3.0042e-18 0.000137366 0
-3.86167e-18 0.000225429 0
3.72488e-05 0.000225998 0
4.0533e-05 0.00032427 0
2.78901e-05 0.000225751 0
3.03628e-05 0.000324128 0
4.0533e-05 0.00032427 0
4.22481e-05 0.000428492 0
3.03628e-05 0.000324128 0
3.16617e-05 0.000428427 0
2.78901e-05 0.000225751 0
3.03628e-05 0.000324128 0
1.85692e-05 0.000225573 0
2.0225e-05 0.000324027 0
3.03628e-05 0.000324128 0
3.16617e-05 0.000428427 0
2.0225e-05 0.000324027 0
2.1096e-05 0.00042838 0
4.22481e-05 0.000428492 0
4.29171e-05 0.000535396 0
3.16617e-05 0.000428427 0
3.21762e-05 0.000535377 0
4.29171e-05 0.000535396 0
4.30668e-05 0.000643025 0
3.21762e-05 0.000535377 0
3.22973e-05 0.000643021 0
3.16617e-05 0.000428427 0
3.21762e-05 0.000535377 0
2.1096e-05 0.00042838 0
2.14452e-05 0.000535362 0
3.21762e-05 0.000535377 0
3.22973e-05 0.000643021 0
2.14452e-05 0.000535362 0
2.15301e-05 0.000643018 0
1.85692e-05 0.000225573 0
2.0225e-05 0.000324027 0
9.27708e-06 0.000225465 0
1.01075e-05 0.000323966 0
2.0225e-05 0.000324027 0
2.1096e-05 0.00042838 0
1.01075e-05 0.000323966 0
1.05445e-05 0.000428351 0
9.27708e-06 0.000225465 0
1.01075e-05 0.000323966 0
-3.86167e-18 0.000225429 0
-4.75597e-18 0.000323945 0
1.01075e-05 0.000323966 0
1.05445e-05 0.000428351 0
-4.75597e-18 0.000323945 0
-5.52152e-18 0.000428342 0
2.1096e-05 0.00042838 0
2.14452e-05 0.000535362 0
1.05445e-05 0.000428351 0
1.07209e-05 0.000535353 0
2.14452e-05 0.000535362 0
2.15301e-05 0.000643018 0
1.07209e-05 0.000535353 0
1.07646e-05 0.000643015 0
1.05445e-05 0.000428351 0
1.07209e-05 0.000535353 0
-5.52152e-18 0.000428342 0
-5.83725e-18 0.000535351 0
1.07209e-05 0.000535353 0
1.07646e-05 0.000643015 0
-5.83725e-18 0.000535351 0
-6.14263e-18 0.000643014 0
0 0 0
-7.74041e-19 1.7554e-05 0
0 0 0
-2.97784e-06 1.76816e-05 0
-7.74041e-19 1.7554e-05 0
-1.9093e-18 6.56264e-05 0
-2.97784e-06 1.76816e-05 0
-5.94885e-06 6.57054e-05 0
0 0 0
-2.97784e-06 1.76816e-05 0
0 0 0
-6.01275e-06 1.8066e-05 0
-2.97784e-06 1.76816e-05 0
-5.94885e-06 6.57054e-05 0
-6.01275e-06 1.8066e-05 0
-1.19134e-05 6.59406e-05 0
-1.9093e-18 6.56264e-05 0
-3.0042e-18 0.000137366 0
-5.94885e-06 6.57054e-05 0
-7.92259e-06 0.00013742 0
-3.0042e-18 0.000137366 0
-3.86167e-18 0.000225429 0
-7.92259e-06 0.00013742 0
-9.27708e-06 0.000225465 0
-5.94885e-06 6.57054e-05 0
-7.92259e-06 0.00013742 0
-1.19134e-05 6.59406e-05 0
-1.58613e-05 0.000137584 0
-7.92259e-06 0.00013742 0
-9.27708e-06 0.000225465 0
-1.58613e-05 0.000137584 0
-1.85692e-05 0.000225573 0
0 0 0
-6.01275e-06 1.8066e-05 0
0 0 0
-9.17172e-06 1.8711e-05 0
-6.01275e-06 1.8066e-05 0
-1.19134e-05 6.59406e-05 0
-9.17172e-06 1.8711e-05 0
-1.79012e-05 6.63262e-05 0
0 0 0
-9.17172e-06 1.8711e-05 0
0 0 0
-1.25452e-05 1.96225e-05 0
-9.17172e-06 1.8711e-05 0
-1.79012e-05 6.63262e-05 0
-1.25452e-05 1.96225e-05 0
-2.38987e-05 6.68521e-05 0
-1.19134e-05 6.59406e-05 0
-1.58613e-05 0.000137584 0
-1.79012e-05 6.63262e-05 0
-2.38364e-05 0.000137859 0
-1.58613e-05 0.000137584 0
-1.85692e-05 0.000225573 0
-2.38364e-05 0.000137859 0
-2.78901e-05 0.000225751 0
-1.79012e-05 6.63262e-05 0
-2.38364e-05 0.000137859 0
-2.38987e-05 6.68521e-05 0
-3.18791e-05 0.000138249 0
-2.38364e-05 0.000137859 0
-2.78901e-05 0.000225751 0
-3.18791e-05 0.000138249 0
-3.72488e-05 0.000225998 0
-3.86167e-18 0.000225429 0
-4.75597e-18 0.000323945 0
-9.27708e-06 0.000225465 0
-1.01075e-05 0.000323966 0
-4.75597e-18 0.000323945 0
-5.52152e-18 0.000428342 0
-1.01075e-05 0.000323966 0
-1.05445e-05 0.000428351 0
-9.27708e-06 0.000225465 0
-1.01075e-05 0.000323966 0
-1.85692e-05 0.000225573 0
-2.0225e-05 0.000324027 0
-1.01075e-05 0.000323966 0
-1.05445e-05 0.000428351 0
-2.0225e-05 0.000324027 0
-2.1096e-05 0.00042838 0
-5.52152e-18 0.000428342 0
-5.83725e-18 0.000535351 0
-1.05445e-05 0.000428351 0
-1.07209e-05 0.000535353 0
-5.83725e-18 0.000535351 0
-6.14263e-18 0.000643014 0
-1.07209e-05 0.000535353 0
-1.07646e-05 0.000643015 0
-1.05445e-05 0.000428351 0
-1.07209e-05 0.000535353 0
-2.1096e-05 0.00042838 0
-2.14452e-05 0.000535362 0
-1.07209e-05 0.000535353 0
-1.07646e-05 0.000643015 0
-2.14452e-05 0.000535362 0
-2.15301e-05 0.000643018 0
-1.85692e-05 0.000225573 0
-2.0225e-05 0.000324027 0
-2.78901e-05 0.000225751 0
-3.03628e-05 0.000324128 0
-2.0225e-05 0.000324027 0
-2.1096e-05 0.00042838 0
-3.03628e-05 0.000324128 0
-3.16617e-05 0.000428427 0
-2.78901e-05 0.000225751 0
-3.03628e-05 0.000324128 0
-3.72488e-05 0.000225998 0
-4.0533e-05 0.00032427 0
-3.03628e-05 0.000324128 0
-3.16617e-05 0.000428427 0
-4.0533e-05 0.00032427 0
-4.22481e-05 0.000428492 0
-2.1096e-05 0.00042838 0
-2.14452e-05 0.000535362 0
-3.16617e-05 0.000428427 0
-3.21762e-05 0.000535377 0
-2.14452e-05 0.000535362 0
-2.15301e-05 0.000643018 0
-3.21762e-05 0.000535377 0
-3.22973e-05 0.000643021 0
-3.16617e-05 0.000428427 0
-3.21762e-05 0.000535377 0
-4.22481e-05 0.000428492 0
-4.29171e-05 0.000535396 0
-3.21762e-05 0.000535377 0
-3.22973e-05 0.000643021 0
-4.29171e-05 0.000535396 0
-4.30668e-05 0.000643025 0
VECTORS velocity double
0 0 0
-6.60243e-06 -1.03271e-05 0
0 0 0
-4.82698e-06 -9.84738e-06 0
-6.60243e-06 -1.03271e-05 0
-1.25776e-05 -3.51835e-05 0
-4.82698e-06 -9.84738e-06 0
-9.42118e-06 -3.49068e-05 0
0 0 0
-4.82698e-06 -9.84738e-06 0
0 0 0
-3.16444e-06 -9.50793e-06 0
-4.82698e-06 -9.84738e-06 0
-9.42118e-06 -3.49068e-05 0
-3.16444e-06 -9.50793e-06 0
-6.2699e-06 -3.47038e-05 0
-1.25776e-05 -3.51835e-05 0
-1.67776e-05 -7.27588e-05 0
-9.42118e-06 -3.49068e-05 0
-1.25448e-05 -7.25534e-05 0
-1.67776e-05 -7.27588e-05 0
-1.96036e-05 -0.00011894 0
-1.25448e-05 -7.25534e-05 0
-1.46782e-05 -0.00011881 0
-9.42118e-06 -3.49068e-05 0
-1.25448e-05 -7.25534e-05 0
-6.2699e-06 -3.47038e-05 0
-8.34764e-06 -7.24088e-05 0
-1.25448e-05 -7.25534e-05 0
-1.46782e-05 -0.00011881 0
-8.34764e-06 -7.24088e-05 0
-9.77276e-06 -0.000118716 0
0 0 0
-3.16444e-06 -9.50793e-06 0
0 0 0
-1.56721e-06 -9.30566e-06 0
-3.16444e-06 -9.50793e-06 0
-6.2699e-06 -3.47038e-05 0
-1.56721e-06 -9.30566e-06 0
-3.13082e-06 -3.45801e-05 0
0 0 0
-1.56721e-06 -9.30566e-06 0
0 0 0
1.86942e-17 -9.23848e-06 0
-1.56721e-06 -9.30566e-06 0
-3.13082e-06 -3.45801e-05 0
1.86942e-17 -9.23848e-06 0
4.31975e-17 -3.45385e-05 0
-6.2699e-06 -3.47038e-05 0
-8.34764e-06 -7.24088e-05 0
-3.13082e-06 -3.45801e-05 0
-4.16957e-06 -7.23227e-05 0
-8.34764e-06 -7.24088e-05 0
-9.77276e-06 -0.000118716 0
-4.16957e-06 -7.23227e-05 0
-4.88242e-06 -0.00011866 0
-3.13082e-06 -3.45801e-05 0
-4.16957e-06 -7.23227e-05 0
4.31975e-17 -3.45385e-05 0
6.83011e-17 -7.2294e-05 0
-4.16957e-06 -7.23227e-05 0
-4.88242e-06 -0.00011866 0
6.83011e-17 -7.2294e-05 0
8.64433e-17 -0.000118641 0
-1.96036e-05 -0.00011894 0
-2.1332e-05 -0.000170659 0
-1.46782e-05 -0.00011881 0
-1.59796e-05 -0.000170585 0
-2.1332e-05 -0.000170659 0
-2.22347e-05 -0.00022551 0
-1.59796e-05 -0.000170585 0
-1.66631e-05 -0.000225476 0
-1.46782e-05 -0.00011881 0
-1.59796e-05 -0.000170585 0
-9.77276e-06 -0.000118716 0
-1.06441e-05 -0.000170532 0
-1.59796e-05 -0.000170585 0
-1.66631e-05 -0.000225476 0
-1.06441e-05 -0.000170532 0
-1.11026e-05 -0.000225451 0
-2.22347e-05 -0.00022551 0
-2.25867e-05 -0.000281773 0
-1.66631e-05 -0.000225476 0
-1.69339e-05 -0.000281762 0
-2.25867e-05 -0.000281773 0
-2.26655e-05 -0.000338416 0
-1.69339e-05 -0.000281762 0
-1.69977e-05 -0.000338414 0
-1.66631e-05 -0.000225476 0
-1.69339e-05 -0.000281762 0
-1.11026e-05 -0.000225451 0
-1.12864e-05 -0.000281755 0
-1.69339e-05 -0.000281762 0
-1.69977e-05 -0.000338414 0
-1.12864e-05 -0.000281755 0
-1.1331e-05 -0.000338412 0
-9.77276e-06 -0.000118716 0
-1.06441e-05 -0.000170532 0
-4.88242e-06 -0.00011866 0
-5.31944e-06 -0.000170499 0
-1.06441e-05 -0.000170532 0
-1.11026e-05 -0.000225451 0
-5.31944e-06 -0.000170499 0
-5.54942e-06 -0.000225436 0
-4.88242e-06 -0.00011866 0
-5.31944e-06 -0.000170499 0
8.64433e-17 -0.000118641 0
1.01498e-16 -0.000170489 0
-5.31944e-06 -0.000170499 0
-5.54942e-06 -0.000225436 0
1.01498e-16 -0.000170489 0
1.26205e-16 -0.000225431 0
-1.11026e-05 -0.000225451 0
-1.12864e-05 -0.000281755 0
-5.54942e-06 -0.000225436 0
-5.64229e-06 -0.00028175 0
-1.12864e-05 -0.000281755 0
-1.1331e-05 -0.000338412 0
-5.64229e-06 -0.00028175 0
-5.66527e-06 -0.000338411 0
-5.54942e-06 -0.000225436 0
-5.64229e-06 -0.00028175 0
1.26205e-16 -0.000225431 0
1.82206e-16 -0.000281749 0
-5.64229e-06 -0.00028175 0
-5.66527e-06 -0.000338411 0
1.82206e-16 -0.000281749 0
2.43007e-16 -0.000338411 0
0 0 0
1.86942e-17 -9.23848e-06 0
0 0 0
1.56721e-06 -9.30566e-06 0
1.86942e-17 -9.23848e-06 0
4.31975e-17 -3.45385e-05 0
1.56721e-06 -9.30566e-06 0
3.13082e-06 -3.45801e-05 0
0 0 0
1.56721e-06 -9.30566e-06 0
0 0 0
3.16444e-06 -9.50793e-06 0
1.56721e-06 -9.30566e-06 0
3.13082e-06 -3.45801e-05 0
3.16444e-06 -9.50793e-06 0
6.2699e-06 -3.47038e-05 0
4.31975e-17 -3.45385e-05 0
6.83011e-17 -7.2294e-05 0
3.13082e-06 -3.45801e-05 0
4.16957e-06 -7.23227e-05 0
6.83011e-17 -7.2294e-05 0
8.64433e-17 -0.000118641 0
4.16957e-06 -7.23227e-05 0
4.88242e-06 -0.00011866 0
3.13082e-06 -3.45801e-05 0
4.16957e-06 -7.23227e-05 0
6.2699e-06 -3.47038e-05 0
8.34764e-06 -7.24088e-05 0
4.16957e-06 -7.23227e-05 0
4.88242e-06 -0.00011866 0
8.34764e-06 -7.24088e-05 0
9.77276e-06 -0.000118716 0
0 0 0
3.16444e-06 -9.50793e-06 0
0 0 0
4.82698e-06 -9.84738e-06 0
3.16444e-06 -9.50793e-06 0
6.2699e-06 -3.47038e-05 0
4.82698e-06 -9.84738e-06 0
9.42118e-06 -3.49068e-05 0
0 0 0
4.82698e-06 -9.84738e-06 0
0 0 0
6.60243e-06 -1.03271e-05 0
4.82698e-06 -9.84738e-06 0
9.42118e-06 -3.49068e-05 0
6.60243e-06 -1.03271e-05 0
1.25776e-05 -3.51835e-05 0
6.2699e-06 -3.47038e-05 0
8.34764e-06 -7.24088e-05 0
9.42118e-06 -3.49068e-05 0
1.25448e-05 -7.25534e-05 0
8.34764e-06 -7.24088e-05 0
9.77276e-06 -0.000118716 0
1.25448e-05 -7.25534e-05 0
1.46782e-05 -0.00011881 0
9.42118e-06 -3.49068e-05 0
1.25448e-05 -7.25534e-05 0
1.25776e-05 -3.51835e-05 0
1.67776e-05 -7.27588e-05 0
1.25448e-05 -7.25534e-05 0
1.46782e-05 -0.00011881 0
1.67776e-05 -7.27588e-05 0
1.96036e-05 -0.00011894 0
8.64433e-17 -0.000118641 0
1.01498e-16 -0.000170489 0
4.88242e-06 -0.00011866 0
5.31944e-06 -0.000170499 0
1.01498e-16 -0.000170489 0
1.26205e-16 -0.000225431 0
5.31944e-06 -0.000170499 0
5.54942e-06 -0.000225436 0
4.88242e-06 -0.00011866 0
5.31944e-06 -0.000170499 0
9.77276e-06 -0.000118716 0
1.06441e-05 -0.000170532 0
5.31944e-06 -0.000170499 0
5.54942e-06 -0.000225436 0
1.06441e-05 -0.000170532 0
1.11026e-05 -0.000225451 0
1.26205e-16 -0.000225431 0
1.82206e-16 -0.000281749 0
5.54942e-06 -0.000225436 0
5.64229e-06 -0.00028175 0
1.82206e-16 -0.000281749 0
2.43007e-16 -0.000338411 0
5.64229e-06 -0.00028175 0
5.66527e-06 -0.000338411 0
5.54942e-06 -0.000225436 0
5.64229e-06 -0.00028175 0
1.11026e-05 -0.000225451 0
1.12864e-05 -0.000281755 0
5.64229e-06 -0.00028175 0
5.66527e-06 -0.000338411 0
1.12864e-05 -0.000281755 0
1.1331e-05 -0.000338412 0
9.77276e-06 -0.000118716 0
1.06441e-05 -0.000170532 0
1.46782e-05 -0.00011881 0
1.59796e-05 -0.000170585 0
1.06441e-05 -0.000170532 0
1.11026e-05 -0.000225451 0
1.59796e-05 -0.000170585 0
1.66631e-05 -0.000225476 0
1.46782e-05 -0.00011881 0
1.59796e-05 -0.000170585 0
1.96036e-05 -0.00011894 0
2.1332e-05 -0.000170659 0
1.59796e-05 -0.000170585 0
1.66631e-05 -0.000225476 0
2.1332e-05 -0.000170659 0
2.22347e-05 -0.00022551 0
1.11026e-05 -0.000225451 0
1.12864e-05 -0.000281755 0
1.66631e-05 -0.000225476 0
1.69339e-05 -0.000281762 0
1.12864e-05 -0.000281755 0
1.1331e-05 -0.000338412 0
1.69339e-05 -0.000281762 0
1.69977e-05 -0.000338414 0
1.66631e-05 -0.000225476 0
1.69339e-05 -0.000281762 0
2.22347e-05 -0.00022551 0
2.25867e-05 -0.000281773 0
1.69339e-05 -0.000281762 0
1.69977e-05 -0.000338414 0
2.25867e-05 -0.000281773 0
2.26655e-05 -0.000338416 0
