# vtk DataFile Version 3.0
#This file was generated by the deal.II library on 2025/3/10 at 16:33:05
ASCII
DATASET UNSTRUCTURED_GRID

FIELD FieldData 1
TIME 1 1 double
2.94451
POINTS 256 double
0 0 0
0.625 0 0
0 0.0625 0
0.625 0.0625 0
0.625 0 0
1.25 0 0
0.625 0.0625 0
1.25 0.0625 0
0 0.0625 0
0.625 0.0625 0
0 0.125 0
0.625 0.125 0
0.625 0.0625 0
1.25 0.0625 0
0.625 0.125 0
1.25 0.125 0
1.25 0 0
1.875 0 0
1.25 0.0625 0
1.875 0.0625 0
1.875 0 0
2.5 0 0
1.875 0.0625 0
2.5 0.0625 0
1.25 0.0625 0
1.875 0.0625 0
1.25 0.125 0
1.875 0.125 0
1.875 0.0625 0
2.5 0.0625 0
1.875 0.125 0
2.5 0.125 0
0 0.125 0
0.625 0.125 0
0 0.1875 0
0.625 0.1875 0
0.625 0.125 0
1.25 0.125 0
0.625 0.1875 0
1.25 0.1875 0
0 0.1875 0
0.625 0.1875 0
0 0.25 0
0.625 0.25 0
0.625 0.1875 0
1.25 0.1875 0
0.625 0.25 0
1.25 0.25 0
1.25 0.125 0
1.875 0.125 0
1.25 0.1875 0
1.875 0.1875 0
1.875 0.125 0
2.5 0.125 0
1.875 0.1875 0
2.5 0.1875 0
1.25 0.1875 0
1.875 0.1875 0
1.25 0.25 0
1.875 0.25 0
1.875 0.1875 0
2.5 0.1875 0
1.875 0.25 0
2.5 0.25 0
2.5 0 0
3.125 0 0
2.5 0.0625 0
3.125 0.0625 0
3.125 0 0
3.75 0 0
3.125 0.0625 0
3.75 0.0625 0
2.5 0.0625 0
3.125 0.0625 0
2.5 0.125 0
3.125 0.125 0
3.125 0.0625 0
3.75 0.0625 0
3.125 0.125 0
3.75 0.125 0
3.75 0 0
4.375 0 0
3.75 0.0625 0
4.375 0.0625 0
4.375 0 0
5 0 0
4.375 0.0625 0
5 0.0625 0
3.75 0.0625 0
4.375 0.0625 0
3.75 0.125 0
4.375 0.125 0
4.375 0.0625 0
5 0.0625 0
4.375 0.125 0
5 0.125 0
2.5 0.125 0
3.125 0.125 0
2.5 0.1875 0
3.125 0.1875 0
3.125 0.125 0
3.75 0.125 0
3.125 0.1875 0
3.75 0.1875 0
2.5 0.1875 0
3.125 0.1875 0
2.5 0.25 0
3.125 0.25 0
3.125 0.1875 0
3.75 0.1875 0
3.125 0.25 0
3.75 0.25 0
3.75 0.125 0
4.375 0.125 0
3.75 0.1875 0
4.375 0.1875 0
4.375 0.125 0
5 0.125 0
4.375 0.1875 0
5 0.1875 0
3.75 0.1875 0
4.375 0.1875 0
3.75 0.25 0
4.375 0.25 0
4.375 0.1875 0
5 0.1875 0
4.375 0.25 0
5 0.25 0
0 0.25 0
0.625 0.25 0
0 0.3125 0
0.625 0.3125 0
0.625 0.25 0
1.25 0.25 0
0.625 0.3125 0
1.25 0.3125 0
0 0.3125 0
0.625 0.3125 0
0 0.375 0
0.625 0.375 0
0.625 0.3125 0
1.25 0.3125 0
0.625 0.375 0
1.25 0.375 0
1.25 0.25 0
1.875 0.25 0
1.25 0.3125 0
1.875 0.3125 0
1.875 0.25 0
2.5 0.25 0
1.875 0.3125 0
2.5 0.3125 0
1.25 0.3125 0
1.875 0.3125 0
1.25 0.375 0
1.875 0.375 0
1.875 0.3125 0
2.5 0.3125 0
1.875 0.375 0
2.5 0.375 0
0 0.375 0
0.625 0.375 0
0 0.4375 0
0.625 0.4375 0
0.625 0.375 0
1.25 0.375 0
0.625 0.4375 0
1.25 0.4375 0
0 0.4375 0
0.625 0.4375 0
0 0.5 0
0.625 0.5 0
0.625 0.4375 0
1.25 0.4375 0
0.625 0.5 0
1.25 0.5 0
1.25 0.375 0
1.875 0.375 0
1.25 0.4375 0
1.875 0.4375 0
1.875 0.375 0
2.5 0.375 0
1.875 0.4375 0
2.5 0.4375 0
1.25 0.4375 0
1.875 0.4375 0
1.25 0.5 0
1.875 0.5 0
1.875 0.4375 0
2.5 0.4375 0
1.875 0.5 0
2.5 0.5 0
2.5 0.25 0
3.125 0.25 0
2.5 0.3125 0
3.125 0.3125 0
3.125 0.25 0
3.75 0.25 0
3.125 0.3125 0
3.75 0.3125 0
2.5 0.3125 0
3.125 0.3125 0
2.5 0.375 0
3.125 0.375 0
3.125 0.3125 0
3.75 0.3125 0
3.125 0.375 0
3.75 0.375 0
3.75 0.25 0
4.375 0.25 0
3.75 0.3125 0
4.375 0.3125 0
4.375 0.25 0
5 0.25 0
4.375 0.3125 0
5 0.3125 0
3.75 0.3125 0
4.375 0.3125 0
3.75 0.375 0
4.375 0.375 0
4.375 0.3125 0
5 0.3125 0
4.375 0.375 0
5 0.375 0
2.5 0.375 0
3.125 0.375 0
2.5 0.4375 0
3.125 0.4375 0
3.125 0.375 0
3.75 0.375 0
3.125 0.4375 0
3.75 0.4375 0
2.5 0.4375 0
3.125 0.4375 0
2.5 0.5 0
3.125 0.5 0
3.125 0.4375 0
3.75 0.4375 0
3.125 0.5 0
3.75 0.5 0
3.75 0.375 0
4.375 0.375 0
3.75 0.4375 0
4.375 0.4375 0
4.375 0.375 0
5 0.375 0
4.375 0.4375 0
5 0.4375 0
3.75 0.4375 0
4.375 0.4375 0
3.75 0.5 0
4.375 0.5 0
4.375 0.4375 0
5 0.4375 0
4.375 0.5 0
5 0.5 0

CELLS 64 320
4	0	1	3	2
4	4	5	7	6
4	8	9	11	10
4	12	13	15	14
4	16	17	19	18
4	20	21	23	22
4	24	25	27	26
4	28	29	31	30
4	32	33	35	34
4	36	37	39	38
4	40	41	43	42
4	44	45	47	46
4	48	49	51	50
4	52	53	55	54
4	56	57	59	58
4	60	61	63	62
4	64	65	67	66
4	68	69	71	70
4	72	73	75	74
4	76	77	79	78
4	80	81	83	82
4	84	85	87	86
4	88	89	91	90
4	92	93	95	94
4	96	97	99	98
4	100	101	103	102
4	104	105	107	106
4	108	109	111	110
4	112	113	115	114
4	116	117	119	118
4	120	121	123	122
4	124	125	127	126
4	128	129	131	130
4	132	133	135	134
4	136	137	139	138
4	140	141	143	142
4	144	145	147	146
4	148	149	151	150
4	152	153	155	154
4	156	157	159	158
4	160	161	163	162
4	164	165	167	166
4	168	169	171	170
4	172	173	175	174
4	176	177	179	178
4	180	181	183	182
4	184	185	187	186
4	188	189	191	190
4	192	193	195	194
4	196	197	199	198
4	200	201	203	202
4	204	205	207	206
4	208	209	211	210
4	212	213	215	214
4	216	217	219	218
4	220	221	223	222
4	224	225	227	226
4	228	229	231	230
4	232	233	235	234
4	236	237	239	238
4	240	241	243	242
4	244	245	247	246
4	248	249	251	250
4	252	253	255	254

CELL_TYPES 64
 9 9 9 9 9 9 9 9 9 9 9 9 9 9 9 9 9 9 9 9 9 9 9 9 9 9 9 9 9 9 9 9 9 9 9 9 9 9 9 9 9 9 9 9 9 9 9 9 9 9 9 9 9 9 9 9 9 9 9 9 9 9 9 9
POINT_DATA 256
VECTORS displacement double
0 0 0
2.79017e-06 4.3642e-06 0
0 0 0
2.03987e-06 4.16147e-06 0
2.79017e-06 4.3642e-06 0
5.31529e-06 1.48685e-05 0
2.03987e-06 4.16147e-06 0
3.98138e-06 1.47515e-05 0
0 0 0
2.03987e-06 4.16147e-06 0
0 0 0
1.33729e-06 4.01802e-06 0
2.03987e-06 4.16147e-06 0
3.98138e-06 1.47515e-05 0
1.33729e-06 4.01802e-06 0
2.64965e-06 1.46657e-05 0
5.31529e-06 1.48685e-05 0
7.0902e-06 3.07477e-05 0
3.98138e-06 1.47515e-05 0
5.30143e-06 3.0661e-05 0
7.0902e-06 3.07477e-05 0
8.28449e-06 5.02641e-05 0
5.30143e-06 3.0661e-05 0
6.20303e-06 5.02092e-05 0
3.98138e-06 1.47515e-05 0
5.30143e-06 3.0661e-05 0
2.64965e-06 1.46657e-05 0
3.52771e-06 3.05998e-05 0
5.30143e-06 3.0661e-05 0
6.20303e-06 5.02092e-05 0
3.52771e-06 3.05998e-05 0
4.12997e-06 5.01694e-05 0
0 0 0
1.33729e-06 4.01802e-06 0
0 0 0
6.62298e-07 3.93254e-06 0
1.33729e-06 4.01802e-06 0
2.64965e-06 1.46657e-05 0
6.62298e-07 3.93254e-06 0
1.32308e-06 1.46134e-05 0
0 0 0
6.62298e-07 3.93254e-06 0
0 0 0
-2.28771e-19 3.90414e-06 0
6.62298e-07 3.93254e-06 0
1.32308e-06 1.46134e-05 0
-2.28771e-19 3.90414e-06 0
-5.09403e-19 1.45959e-05 0
2.64965e-06 1.46657e-05 0
3.52771e-06 3.05998e-05 0
1.32308e-06 1.46134e-05 0
1.76206e-06 3.05634e-05 0
3.52771e-06 3.05998e-05 0
4.12997e-06 5.01694e-05 0
1.76206e-06 3.05634e-05 0
2.06331e-06 5.01454e-05 0
1.32308e-06 1.46134e-05 0
1.76206e-06 3.05634e-05 0
-5.09403e-19 1.45959e-05 0
-7.66747e-19 3.05513e-05 0
1.76206e-06 3.05634e-05 0
2.06331e-06 5.01454e-05 0
-7.66747e-19 3.05513e-05 0
-1.02727e-18 5.01374e-05 0
8.28449e-06 5.02641e-05 0
9.01493e-06 7.21206e-05 0
6.20303e-06 5.02092e-05 0
6.75298e-06 7.20891e-05 0
9.01493e-06 7.21206e-05 0
9.39641e-06 9.53007e-05 0
6.75298e-06 7.20891e-05 0
7.04187e-06 9.52862e-05 0
6.20303e-06 5.02092e-05 0
6.75298e-06 7.20891e-05 0
4.12997e-06 5.01694e-05 0
4.49823e-06 7.20666e-05 0
6.75298e-06 7.20891e-05 0
7.04187e-06 9.52862e-05 0
4.49823e-06 7.20666e-05 0
4.69196e-06 9.52757e-05 0
9.39641e-06 9.53007e-05 0
9.54519e-06 0.000119077 0
7.04187e-06 9.52862e-05 0
7.1563e-06 0.000119073 0
9.54519e-06 0.000119077 0
9.57848e-06 0.000143015 0
7.1563e-06 0.000119073 0
7.18325e-06 0.000143014 0
7.04187e-06 9.52862e-05 0
7.1563e-06 0.000119073 0
4.69196e-06 9.52757e-05 0
4.76963e-06 0.00011907 0
7.1563e-06 0.000119073 0
7.18325e-06 0.000143014 0
4.76963e-06 0.00011907 0
4.78851e-06 0.000143013 0
4.12997e-06 5.01694e-05 0
4.49823e-06 7.20666e-05 0
2.06331e-06 5.01454e-05 0
2.248e-06 7.2053e-05 0
4.49823e-06 7.20666e-05 0
4.69196e-06 9.52757e-05 0
2.248e-06 7.2053e-05 0
2.34519e-06 9.52693e-05 0
2.06331e-06 5.01454e-05 0
2.248e-06 7.2053e-05 0
-1.02727e-18 5.01374e-05 0
-1.38432e-18 7.20485e-05 0
2.248e-06 7.2053e-05 0
2.34519e-06 9.52693e-05 0
-1.38432e-18 7.20485e-05 0
-1.567e-18 9.52672e-05 0
4.69196e-06 9.52757e-05 0
4.76963e-06 0.00011907 0
2.34519e-06 9.52693e-05 0
2.38444e-06 0.000119068 0
4.76963e-06 0.00011907 0
4.78851e-06 0.000143013 0
2.38444e-06 0.000119068 0
2.39415e-06 0.000143013 0
2.34519e-06 9.52693e-05 0
2.38444e-06 0.000119068 0
-1.567e-18 9.52672e-05 0
-1.79559e-18 0.000119067 0
2.38444e-06 0.000119068 0
2.39415e-06 0.000143013 0
-1.79559e-18 0.000119067 0
-1.7523e-18 0.000143013 0
0 0 0
-2.28771e-19 3.90414e-06 0
0 0 0
-6.62298e-07 3.93254e-06 0
-2.28771e-19 3.90414e-06 0
-5.09403e-19 1.45959e-05 0
-6.62298e-07 3.93254e-06 0
-1.32308e-06 1.46134e-05 0
0 0 0
-6.62298e-07 3.93254e-06 0
0 0 0
-1.33729e-06 4.01802e-06 0
-6.62298e-07 3.93254e-06 0
-1.32308e-06 1.46134e-05 0
-1.33729e-06 4.01802e-06 0
-2.64965e-06 1.46657e-05 0
-5.09403e-19 1.45959e-05 0
-7.66747e-19 3.05513e-05 0
-1.32308e-06 1.46134e-05 0
-1.76206e-06 3.05634e-05 0
-7.66747e-19 3.05513e-05 0
-1.02727e-18 5.01374e-05 0
-1.76206e-06 3.05634e-05 0
-2.06331e-06 5.01454e-05 0
-1.32308e-06 1.46134e-05 0
-1.76206e-06 3.05634e-05 0
-2.64965e-06 1.46657e-05 0
-3.52771e-06 3.05998e-05 0
-1.76206e-06 3.05634e-05 0
-2.06331e-06 5.01454e-05 0
-3.52771e-06 3.05998e-05 0
-4.12997e-06 5.01694e-05 0
0 0 0
-1.33729e-06 4.01802e-06 0
0 0 0
-2.03987e-06 4.16147e-06 0
-1.33729e-06 4.01802e-06 0
-2.64965e-06 1.46657e-05 0
-2.03987e-06 4.16147e-06 0
-3.98138e-06 1.47515e-05 0
0 0 0
-2.03987e-06 4.16147e-06 0
0 0 0
-2.79017e-06 4.3642e-06 0
-2.03987e-06 4.16147e-06 0
-3.98138e-06 1.47515e-05 0
-2.79017e-06 4.3642e-06 0
-5.31529e-06 1.48685e-05 0
-2.64965e-06 1.46657e-05 0
-3.52771e-06 3.05998e-05 0
-3.98138e-06 1.47515e-05 0
-5.30143e-06 3.0661e-05 0
-3.52771e-06 3.05998e-05 0
-4.12997e-06 5.01694e-05 0
-5.30143e-06 3.0661e-05 0
-6.20303e-06 5.02092e-05 0
-3.98138e-06 1.47515e-05 0
-5.30143e-06 3.0661e-05 0
-5.31529e-06 1.48685e-05 0
-7.0902e-06 3.07477e-05 0
-5.30143e-06 3.0661e-05 0
-6.20303e-06 5.02092e-05 0
-7.0902e-06 3.07477e-05 0
-8.28449e-06 5.02641e-05 0
-1.02727e-18 5.01374e-05 0
-1.38432e-18 7.20485e-05 0
-2.06331e-06 5.01454e-05 0
-2.248e-06 7.2053e-05 0
-1.38432e-18 7.20485e-05 0
-1.567e-18 9.52672e-05 0
-2.248e-06 7.2053e-05 0
-2.34519e-06 9.52693e-05 0
-2.06331e-06 5.01454e-05 0
-2.248e-06 7.2053e-05 0
-4.12997e-06 5.01694e-05 0
-4.49823e-06 7.20666e-05 0
-2.248e-06 7.2053e-05 0
-2.34519e-06 9.52693e-05 0
-4.49823e-06 7.20666e-05 0
-4.69196e-06 9.52757e-05 0
-1.567e-18 9.52672e-05 0
-1.79559e-18 0.000119067 0
-2.34519e-06 9.52693e-05 0
-2.38444e-06 0.000119068 0
-1.79559e-18 0.000119067 0
-1.7523e-18 0.000143013 0
-2.38444e-06 0.000119068 0
-2.39415e-06 0.000143013 0
-2.34519e-06 9.52693e-05 0
-2.38444e-06 0.000119068 0
-4.69196e-06 9.52757e-05 0
-4.76963e-06 0.00011907 0
-2.38444e-06 0.000119068 0
-2.39415e-06 0.000143013 0
-4.76963e-06 0.00011907 0
-4.78851e-06 0.000143013 0
-4.12997e-06 5.01694e-05 0
-4.49823e-06 7.20666e-05 0
-6.20303e-06 5.02092e-05 0
-6.75298e-06 7.20891e-05 0
-4.49823e-06 7.20666e-05 0
-4.69196e-06 9.52757e-05 0
-6.75298e-06 7.20891e-05 0
-7.04187e-06 9.52862e-05 0
-6.20303e-06 5.02092e-05 0
-6.75298e-06 7.20891e-05 0
-8.28449e-06 5.02641e-05 0
-9.01493e-06 7.21206e-05 0
-6.75298e-06 7.20891e-05 0
-7.04187e-06 9.52862e-05 0
-9.01493e-06 7.21206e-05 0
-9.39641e-06 9.53007e-05 0
-4.69196e-06 9.52757e-05 0
-4.76963e-06 0.00011907 0
-7.04187e-06 9.52862e-05 0
-7.1563e-06 0.000119073 0
-4.76963e-06 0.00011907 0
-4.78851e-06 0.000143013 0
-7.1563e-06 0.000119073 0
-7.18325e-06 0.000143014 0
-7.04187e-06 9.52862e-05 0
-7.1563e-06 0.000119073 0
-9.39641e-06 9.53007e-05 0
-9.54519e-06 0.000119077 0
-7.1563e-06 0.000119073 0
-7.18325e-06 0.000143014 0
-9.54519e-06 0.000119077 0
-9.57848e-06 0.000143015 0
VECTORS velocity double
0 0 0
-1.39376e-05 -2.18003e-05 0
0 0 0
-1.01896e-05 -2.07876e-05 0
-1.39376e-05 -2.18003e-05 0
-2.65511e-05 -7.42717e-05 0
-1.01896e-05 -2.07876e-05 0
-1.98879e-05 -7.36875e-05 0
0 0 0
-1.01896e-05 -2.07876e-05 0
0 0 0
-6.68008e-06 -2.0071e-05 0
-1.01896e-05 -2.07876e-05 0
-1.98879e-05 -7.36875e-05 0
-6.68008e-06 -2.0071e-05 0
-1.32356e-05 -7.3259e-05 0
-2.65511e-05 -7.42717e-05 0
-3.54172e-05 -0.000153592 0
-1.98879e-05 -7.36875e-05 0
-2.64819e-05 -0.000153159 0
-3.54172e-05 -0.000153592 0
-4.13829e-05 -0.000251081 0
-2.64819e-05 -0.000153159 0
-3.09855e-05 -0.000250807 0
-1.98879e-05 -7.36875e-05 0
-2.64819e-05 -0.000153159 0
-1.32356e-05 -7.3259e-05 0
-1.76217e-05 -0.000152854 0
-2.64819e-05 -0.000153159 0
-3.09855e-05 -0.000250807 0
-1.76217e-05 -0.000152854 0
-2.06301e-05 -0.000250608 0
0 0 0
-6.68008e-06 -2.0071e-05 0
0 0 0
-3.30834e-06 -1.9644e-05 0
-6.68008e-06 -2.0071e-05 0
-1.32356e-05 -7.3259e-05 0
-3.30834e-06 -1.9644e-05 0
-6.60909e-06 -7.29978e-05 0
0 0 0
-3.30834e-06 -1.9644e-05 0
0 0 0
-1.16467e-18 -1.95022e-05 0
-3.30834e-06 -1.9644e-05 0
-6.60909e-06 -7.29978e-05 0
-1.16467e-18 -1.95022e-05 0
-1.94743e-18 -7.291e-05 0
-1.32356e-05 -7.3259e-05 0
-1.76217e-05 -0.000152854 0
-6.60909e-06 -7.29978e-05 0
-8.80188e-06 -0.000152672 0
-1.76217e-05 -0.000152854 0
-2.06301e-05 -0.000250608 0
-8.80188e-06 -0.000152672 0
-1.03067e-05 -0.000250488 0
-6.60909e-06 -7.29978e-05 0
-8.80188e-06 -0.000152672 0
-1.94743e-18 -7.291e-05 0
8.78326e-20 -0.000152611 0
-8.80188e-06 -0.000152672 0
-1.03067e-05 -0.000250488 0
8.78326e-20 -0.000152611 0
3.30934e-18 -0.000250448 0
-4.13829e-05 -0.000251081 0
-4.50315e-05 -0.000360259 0
-3.09855e-05 -0.000250807 0
-3.37326e-05 -0.000360102 0
-4.50315e-05 -0.000360259 0
-4.6937e-05 -0.000476048 0
-3.37326e-05 -0.000360102 0
-3.51756e-05 -0.000475976 0
-3.09855e-05 -0.000250807 0
-3.37326e-05 -0.000360102 0
-2.06301e-05 -0.000250608 0
-2.24696e-05 -0.000359989 0
-3.37326e-05 -0.000360102 0
-3.51756e-05 -0.000475976 0
-2.24696e-05 -0.000359989 0
-2.34373e-05 -0.000475924 0
-4.6937e-05 -0.000476048 0
-4.76802e-05 -0.000594817 0
-3.51756e-05 -0.000475976 0
-3.57472e-05 -0.000594796 0
-4.76802e-05 -0.000594817 0
-4.78465e-05 -0.000714391 0
-3.57472e-05 -0.000594796 0
-3.58818e-05 -0.000714387 0
-3.51756e-05 -0.000475976 0
-3.57472e-05 -0.000594796 0
-2.34373e-05 -0.000475924 0
-2.38253e-05 -0.00059478 0
-3.57472e-05 -0.000594796 0
-3.58818e-05 -0.000714387 0
-2.38253e-05 -0.00059478 0
-2.39196e-05 -0.000714383 0
-2.06301e-05 -0.000250608 0
-2.24696e-05 -0.000359989 0
-1.03067e-05 -0.000250488 0
-1.12292e-05 -0.000359921 0
-2.24696e-05 -0.000359989 0
-2.34373e-05 -0.000475924 0
-1.12292e-05 -0.000359921 0
-1.17147e-05 -0.000475892 0
-1.03067e-05 -0.000250488 0
-1.12292e-05 -0.000359921 0
3.30934e-18 -0.000250448 0
-9.68289e-19 -0.000359899 0
-1.12292e-05 -0.000359921 0
-1.17147e-05 -0.000475892 0
-9.68289e-19 -0.000359899 0
4.55554e-18 -0.000475881 0
-2.34373e-05 -0.000475924 0
-2.38253e-05 -0.00059478 0
-1.17147e-05 -0.000475892 0
-1.19108e-05 -0.00059477 0
-2.38253e-05 -0.00059478 0
-2.39196e-05 -0.000714383 0
-1.19108e-05 -0.00059477 0
-1.19593e-05 -0.00071438 0
-1.17147e-05 -0.000475892 0
-1.19108e-05 -0.00059477 0
4.55554e-18 -0.000475881 0
1.0612e-17 -0.000594766 0
-1.19108e-05 -0.00059477 0
-1.19593e-05 -0.00071438 0
1.0612e-17 -0.000594766 0
2.63815e-17 -0.000714379 0
0 0 0
-1.16467e-18 -1.95022e-05 0
0 0 0
3.30834e-06 -1.9644e-05 0
-1.16467e-18 -1.95022e-05 0
-1.94743e-18 -7.291e-05 0
3.30834e-06 -1.9644e-05 0
6.60909e-06 -7.29978e-05 0
0 0 0
3.30834e-06 -1.9644e-05 0
0 0 0
6.68008e-06 -2.0071e-05 0
3.30834e-06 -1.9644e-05 0
6.60909e-06 -7.29978e-05 0
6.68008e-06 -2.0071e-05 0
1.32356e-05 -7.3259e-05 0
-1.94743e-18 -7.291e-05 0
8.78326e-20 -0.000152611 0
6.60909e-06 -7.29978e-05 0
8.80188e-06 -0.000152672 0
8.78326e-20 -0.000152611 0
3.30934e-18 -0.000250448 0
8.80188e-06 -0.000152672 0
1.03067e-05 -0.000250488 0
6.60909e-06 -7.29978e-05 0
8.80188e-06 -0.000152672 0
1.32356e-05 -7.3259e-05 0
1.76217e-05 -0.000152854 0
8.80188e-06 -0.000152672 0
1.03067e-05 -0.000250488 0
1.76217e-05 -0.000152854 0
2.06301e-05 -0.000250608 0
0 0 0
6.68008e-06 -2.0071e-05 0
0 0 0
1.01896e-05 -2.07876e-05 0
6.68008e-06 -2.0071e-05 0
1.32356e-05 -7.3259e-05 0
1.01896e-05 -2.07876e-05 0
1.98879e-05 -7.36875e-05 0
0 0 0
1.01896e-05 -2.07876e-05 0
0 0 0
1.39376e-05 -2.18003e-05 0
1.01896e-05 -2.07876e-05 0
1.98879e-05 -7.36875e-05 0
1.39376e-05 -2.18003e-05 0
2.65511e-05 -7.42717e-05 0
1.32356e-05 -7.3259e-05 0
1.76217e-05 -0.000152854 0
1.98879e-05 -7.36875e-05 0
2.64819e-05 -0.000153159 0
1.76217e-05 -0.000152854 0
2.06301e-05 -0.000250608 0
2.64819e-05 -0.000153159 0
3.09855e-05 -0.000250807 0
1.98879e-05 -7.36875e-05 0
2.64819e-05 -0.000153159 0
2.65511e-05 -7.42717e-05 0
3.54172e-05 -0.000153592 0
2.64819e-05 -0.000153159 0
3.09855e-05 -0.000250807 0
3.54172e-05 -0.000153592 0
4.13829e-05 -0.000251081 0
3.30934e-18 -0.000250448 0
-9.68289e-19 -0.000359899 0
1.03067e-05 -0.000250488 0
1.12292e-05 -0.000359921 0
-9.68289e-19 -0.000359899 0
4.55554e-18 -0.000475881 0
1.12292e-05 -0.000359921 0
1.17147e-05 -0.000475892 0
1.03067e-05 -0.000250488 0
1.12292e-05 -0.000359921 0
2.06301e-05 -0.000250608 0
2.24696e-05 -0.000359989 0
1.12292e-05 -0.000359921 0
1.17147e-05 -0.000475892 0
2.24696e-05 -0.000359989 0
2.34373e-05 -0.000475924 0
4.55554e-18 -0.000475881 0
1.0612e-17 -0.000594766 0
1.17147e-05 -0.000475892 0
1.19108e-05 -0.00059477 0
1.0612e-17 -0.000594766 0
2.63815e-17 -0.000714379 0
1.19108e-05 -0.00059477 0
1.19593e-05 -0.00071438 0
1.17147e-05 -0.000475892 0
1.19108e-05 -0.00059477 0
2.34373e-05 -0.000475924 0
2.38253e-05 -0.00059478 0
1.19108e-05 -0.00059477 0
1.19593e-05 -0.00071438 0
2.38253e-05 -0.00059478 0
2.39196e-05 -0.000714383 0
2.06301e-05 -0.000250608 0
2.24696e-05 -0.000359989 0
3.09855e-05 -0.000250807 0
3.37326e-05 -0.000360102 0
2.24696e-05 -0.000359989 0
2.34373e-05 -0.000475924 0
3.37326e-05 -0.000360102 0
3.51756e-05 -0.000475976 0
3.09855e-05 -0.000250807 0
3.37326e-05 -0.000360102 0
4.13829e-05 -0.000251081 0
4.50315e-05 -0.000360259 0
3.37326e-05 -0.000360102 0
3.51756e-05 -0.000475976 0
4.50315e-05 -0.000360259 0
4.6937e-05 -0.000476048 0
2.34373e-05 -0.000475924 0
2.38253e-05 -0.00059478 0
3.51756e-05 -0.000475976 0
3.57472e-05 -0.000594796 0
2.38253e-05 -0.00059478 0
2.39196e-05 -0.000714383 0
3.57472e-05 -0.000594796 0
3.58818e-05 -0.000714387 0
3.51756e-05 -0.000475976 0
3.57472e-05 -0.000594796 0
4.6937e-05 -0.000476048 0
4.76802e-05 -0.000594817 0
3.57472e-05 -0.000594796 0
3.58818e-05 -0.000714387 0
4.76802e-05 -0.000594817 0
4.78465e-05 -0.000714391 0
