# vtk DataFile Version 3.0
#This file was generated by the deal.II library on 2025/3/10 at 16:30:59
ASCII
DATASET UNSTRUCTURED_GRID

FIELD FieldData 1
TIME 1 1 double
1.06296
POINTS 256 double
0 0 0
0.625 0 0
0 0.0625 0
0.625 0.0625 0
0.625 0 0
1.25 0 0
0.625 0.0625 0
1.25 0.0625 0
0 0.0625 0
0.625 0.0625 0
0 0.125 0
0.625 0.125 0
0.625 0.0625 0
1.25 0.0625 0
0.625 0.125 0
1.25 0.125 0
1.25 0 0
1.875 0 0
1.25 0.0625 0
1.875 0.0625 0
1.875 0 0
2.5 0 0
1.875 0.0625 0
2.5 0.0625 0
1.25 0.0625 0
1.875 0.0625 0
1.25 0.125 0
1.875 0.125 0
1.875 0.0625 0
2.5 0.0625 0
1.875 0.125 0
2.5 0.125 0
0 0.125 0
0.625 0.125 0
0 0.1875 0
0.625 0.1875 0
0.625 0.125 0
1.25 0.125 0
0.625 0.1875 0
1.25 0.1875 0
0 0.1875 0
0.625 0.1875 0
0 0.25 0
0.625 0.25 0
0.625 0.1875 0
1.25 0.1875 0
0.625 0.25 0
1.25 0.25 0
1.25 0.125 0
1.875 0.125 0
1.25 0.1875 0
1.875 0.1875 0
1.875 0.125 0
2.5 0.125 0
1.875 0.1875 0
2.5 0.1875 0
1.25 0.1875 0
1.875 0.1875 0
1.25 0.25 0
1.875 0.25 0
1.875 0.1875 0
2.5 0.1875 0
1.875 0.25 0
2.5 0.25 0
2.5 0 0
3.125 0 0
2.5 0.0625 0
3.125 0.0625 0
3.125 0 0
3.75 0 0
3.125 0.0625 0
3.75 0.0625 0
2.5 0.0625 0
3.125 0.0625 0
2.5 0.125 0
3.125 0.125 0
3.125 0.0625 0
3.75 0.0625 0
3.125 0.125 0
3.75 0.125 0
3.75 0 0
4.375 0 0
3.75 0.0625 0
4.375 0.0625 0
4.375 0 0
5 0 0
4.375 0.0625 0
5 0.0625 0
3.75 0.0625 0
4.375 0.0625 0
3.75 0.125 0
4.375 0.125 0
4.375 0.0625 0
5 0.0625 0
4.375 0.125 0
5 0.125 0
2.5 0.125 0
3.125 0.125 0
2.5 0.1875 0
3.125 0.1875 0
3.125 0.125 0
3.75 0.125 0
3.125 0.1875 0
3.75 0.1875 0
2.5 0.1875 0
3.125 0.1875 0
2.5 0.25 0
3.125 0.25 0
3.125 0.1875 0
3.75 0.1875 0
3.125 0.25 0
3.75 0.25 0
3.75 0.125 0
4.375 0.125 0
3.75 0.1875 0
4.375 0.1875 0
4.375 0.125 0
5 0.125 0
4.375 0.1875 0
5 0.1875 0
3.75 0.1875 0
4.375 0.1875 0
3.75 0.25 0
4.375 0.25 0
4.375 0.1875 0
5 0.1875 0
4.375 0.25 0
5 0.25 0
0 0.25 0
0.625 0.25 0
0 0.3125 0
0.625 0.3125 0
0.625 0.25 0
1.25 0.25 0
0.625 0.3125 0
1.25 0.3125 0
0 0.3125 0
0.625 0.3125 0
0 0.375 0
0.625 0.375 0
0.625 0.3125 0
1.25 0.3125 0
0.625 0.375 0
1.25 0.375 0
1.25 0.25 0
1.875 0.25 0
1.25 0.3125 0
1.875 0.3125 0
1.875 0.25 0
2.5 0.25 0
1.875 0.3125 0
2.5 0.3125 0
1.25 0.3125 0
1.875 0.3125 0
1.25 0.375 0
1.875 0.375 0
1.875 0.3125 0
2.5 0.3125 0
1.875 0.375 0
2.5 0.375 0
0 0.375 0
0.625 0.375 0
0 0.4375 0
0.625 0.4375 0
0.625 0.375 0
1.25 0.375 0
0.625 0.4375 0
1.25 0.4375 0
0 0.4375 0
0.625 0.4375 0
0 0.5 0
0.625 0.5 0
0.625 0.4375 0
1.25 0.4375 0
0.625 0.5 0
1.25 0.5 0
1.25 0.375 0
1.875 0.375 0
1.25 0.4375 0
1.875 0.4375 0
1.875 0.375 0
2.5 0.375 0
1.875 0.4375 0
2.5 0.4375 0
1.25 0.4375 0
1.875 0.4375 0
1.25 0.5 0
1.875 0.5 0
1.875 0.4375 0
2.5 0.4375 0
1.875 0.5 0
2.5 0.5 0
2.5 0.25 0
3.125 0.25 0
2.5 0.3125 0
3.125 0.3125 0
3.125 0.25 0
3.75 0.25 0
3.125 0.3125 0
3.75 0.3125 0
2.5 0.3125 0
3.125 0.3125 0
2.5 0.375 0
3.125 0.375 0
3.125 0.3125 0
3.75 0.3125 0
3.125 0.375 0
3.75 0.375 0
3.75 0.25 0
4.375 0.25 0
3.75 0.3125 0
4.375 0.3125 0
4.375 0.25 0
5 0.25 0
4.375 0.3125 0
5 0.3125 0
3.75 0.3125 0
4.375 0.3125 0
3.75 0.375 0
4.375 0.375 0
4.375 0.3125 0
5 0.3125 0
4.375 0.375 0
5 0.375 0
2.5 0.375 0
3.125 0.375 0
2.5 0.4375 0
3.125 0.4375 0
3.125 0.375 0
3.75 0.375 0
3.125 0.4375 0
3.75 0.4375 0
2.5 0.4375 0
3.125 0.4375 0
2.5 0.5 0
3.125 0.5 0
3.125 0.4375 0
3.75 0.4375 0
3.125 0.5 0
3.75 0.5 0
3.75 0.375 0
4.375 0.375 0
3.75 0.4375 0
4.375 0.4375 0
4.375 0.375 0
5 0.375 0
4.375 0.4375 0
5 0.4375 0
3.75 0.4375 0
4.375 0.4375 0
3.75 0.5 0
4.375 0.5 0
4.375 0.4375 0
5 0.4375 0
4.375 0.5 0
5 0.5 0

CELLS 64 320
4	0	1	3	2
4	4	5	7	6
4	8	9	11	10
4	12	13	15	14
4	16	17	19	18
4	20	21	23	22
4	24	25	27	26
4	28	29	31	30
4	32	33	35	34
4	36	37	39	38
4	40	41	43	42
4	44	45	47	46
4	48	49	51	50
4	52	53	55	54
4	56	57	59	58
4	60	61	63	62
4	64	65	67	66
4	68	69	71	70
4	72	73	75	74
4	76	77	79	78
4	80	81	83	82
4	84	85	87	86
4	88	89	91	90
4	92	93	95	94
4	96	97	99	98
4	100	101	103	102
4	104	105	107	106
4	108	109	111	110
4	112	113	115	114
4	116	117	119	118
4	120	121	123	122
4	124	125	127	126
4	128	129	131	130
4	132	133	135	134
4	136	137	139	138
4	140	141	143	142
4	144	145	147	146
4	148	149	151	150
4	152	153	155	154
4	156	157	159	158
4	160	161	163	162
4	164	165	167	166
4	168	169	171	170
4	172	173	175	174
4	176	177	179	178
4	180	181	183	182
4	184	185	187	186
4	188	189	191	190
4	192	193	195	194
4	196	197	199	198
4	200	201	203	202
4	204	205	207	206
4	208	209	211	210
4	212	213	215	214
4	216	217	219	218
4	220	221	223	222
4	224	225	227	226
4	228	229	231	230
4	232	233	235	234
4	236	237	239	238
4	240	241	243	242
4	244	245	247	246
4	248	249	251	250
4	252	253	255	254

CELL_TYPES 64
 9 9 9 9 9 9 9 9 9 9 9 9 9 9 9 9 9 9 9 9 9 9 9 9 9 9 9 9 9 9 9 9 9 9 9 9 9 9 9 9 9 9 9 9 9 9 9 9 9 9 9 9 9 9 9 9 9 9 9 9 9 9 9 9
POINT_DATA 256
VECTORS displacement double
0 0 0
1.24506e-05 1.94744e-05 0
0 0 0
9.10252e-06 1.85698e-05 0
1.24506e-05 1.94744e-05 0
2.37184e-05 6.63477e-05 0
9.10252e-06 1.85698e-05 0
1.77661e-05 6.58258e-05 0
0 0 0
9.10252e-06 1.85698e-05 0
0 0 0
5.96738e-06 1.79297e-05 0
9.10252e-06 1.85698e-05 0
1.77661e-05 6.58258e-05 0
5.96738e-06 1.79297e-05 0
1.18235e-05 6.54431e-05 0
2.37184e-05 6.63477e-05 0
3.16385e-05 0.000137206 0
1.77661e-05 6.58258e-05 0
2.36565e-05 0.000136818 0
3.16385e-05 0.000137206 0
3.69677e-05 0.000224293 0
2.36565e-05 0.000136818 0
2.76797e-05 0.000224048 0
1.77661e-05 6.58258e-05 0
2.36565e-05 0.000136818 0
1.18235e-05 6.54431e-05 0
1.57417e-05 0.000136546 0
2.36565e-05 0.000136818 0
2.76797e-05 0.000224048 0
1.57417e-05 0.000136546 0
1.84291e-05 0.000223871 0
0 0 0
5.96738e-06 1.79297e-05 0
0 0 0
2.95537e-06 1.75482e-05 0
5.96738e-06 1.79297e-05 0
1.18235e-05 6.54431e-05 0
2.95537e-06 1.75482e-05 0
5.90397e-06 6.52097e-05 0
0 0 0
2.95537e-06 1.75482e-05 0
0 0 0
-8.30134e-19 1.74215e-05 0
2.95537e-06 1.75482e-05 0
5.90397e-06 6.52097e-05 0
-8.30134e-19 1.74215e-05 0
-1.92494e-18 6.51313e-05 0
1.18235e-05 6.54431e-05 0
1.57417e-05 0.000136546 0
5.90397e-06 6.52097e-05 0
7.86281e-06 0.000136383 0
1.57417e-05 0.000136546 0
1.84291e-05 0.000223871 0
7.86281e-06 0.000136383 0
9.20707e-06 0.000223763 0
5.90397e-06 6.52097e-05 0
7.86281e-06 0.000136383 0
-1.92494e-18 6.51313e-05 0
-2.59989e-18 0.000136329 0
7.86281e-06 0.000136383 0
9.20707e-06 0.000223763 0
-2.59989e-18 0.000136329 0
-3.20531e-18 0.000223728 0
3.69677e-05 0.000224293 0
4.02271e-05 0.000321823 0
2.76797e-05 0.000224048 0
3.01337e-05 0.000321682 0
4.02271e-05 0.000321823 0
4.19293e-05 0.000425259 0
3.01337e-05 0.000321682 0
3.14228e-05 0.000425194 0
2.76797e-05 0.000224048 0
3.01337e-05 0.000321682 0
1.84291e-05 0.000223871 0
2.00723e-05 0.000321582 0
3.01337e-05 0.000321682 0
3.14228e-05 0.000425194 0
2.00723e-05 0.000321582 0
2.09368e-05 0.000425147 0
4.19293e-05 0.000425259 0
4.25932e-05 0.000531356 0
3.14228e-05 0.000425194 0
3.19333e-05 0.000531337 0
4.25932e-05 0.000531356 0
4.27418e-05 0.000638173 0
3.19333e-05 0.000531337 0
3.20536e-05 0.000638169 0
3.14228e-05 0.000425194 0
3.19333e-05 0.000531337 0
2.09368e-05 0.000425147 0
2.12834e-05 0.000531323 0
3.19333e-05 0.000531337 0
3.20536e-05 0.000638169 0
2.12834e-05 0.000531323 0
2.13676e-05 0.000638165 0
1.84291e-05 0.000223871 0
2.00723e-05 0.000321582 0
9.20707e-06 0.000223763 0
1.00312e-05 0.000321521 0
2.00723e-05 0.000321582 0
2.09368e-05 0.000425147 0
1.00312e-05 0.000321521 0
1.04649e-05 0.000425119 0
9.20707e-06 0.000223763 0
1.00312e-05 0.000321521 0
-3.20531e-18 0.000223728 0
-4.45542e-18 0.000321501 0
1.00312e-05 0.000321521 0
1.04649e-05 0.000425119 0
-4.45542e-18 0.000321501 0
-5.92969e-18 0.000425109 0
2.09368e-05 0.000425147 0
2.12834e-05 0.000531323 0
1.04649e-05 0.000425119 0
1.064e-05 0.000531314 0
2.12834e-05 0.000531323 0
2.13676e-05 0.000638165 0
1.064e-05 0.000531314 0
1.06834e-05 0.000638163 0
1.04649e-05 0.000425119 0
1.064e-05 0.000531314 0
-5.92969e-18 0.000425109 0
-5.15112e-18 0.000531311 0
1.064e-05 0.000531314 0
1.06834e-05 0.000638163 0
-5.15112e-18 0.000531311 0
-5.91932e-18 0.000638162 0
0 0 0
-8.30134e-19 1.74215e-05 0
0 0 0
-2.95537e-06 1.75482e-05 0
-8.30134e-19 1.74215e-05 0
-1.92494e-18 6.51313e-05 0
-2.95537e-06 1.75482e-05 0
-5.90397e-06 6.52097e-05 0
0 0 0
-2.95537e-06 1.75482e-05 0
0 0 0
-5.96738e-06 1.79297e-05 0
-2.95537e-06 1.75482e-05 0
-5.90397e-06 6.52097e-05 0
-5.96738e-06 1.79297e-05 0
-1.18235e-05 6.54431e-05 0
-1.92494e-18 6.51313e-05 0
-2.59989e-18 0.000136329 0
-5.90397e-06 6.52097e-05 0
-7.86281e-06 0.000136383 0
-2.59989e-18 0.000136329 0
-3.20531e-18 0.000223728 0
-7.86281e-06 0.000136383 0
-9.20707e-06 0.000223763 0
-5.90397e-06 6.52097e-05 0
-7.86281e-06 0.000136383 0
-1.18235e-05 6.54431e-05 0
-1.57417e-05 0.000136546 0
-7.86281e-06 0.000136383 0
-9.20707e-06 0.000223763 0
-1.57417e-05 0.000136546 0
-1.84291e-05 0.000223871 0
0 0 0
-5.96738e-06 1.79297e-05 0
0 0 0
-9.10252e-06 1.85698e-05 0
-5.96738e-06 1.79297e-05 0
-1.18235e-05 6.54431e-05 0
-9.10252e-06 1.85698e-05 0
-1.77661e-05 6.58258e-05 0
0 0 0
-9.10252e-06 1.85698e-05 0
0 0 0
-1.24506e-05 1.94744e-05 0
-9.10252e-06 1.85698e-05 0
-1.77661e-05 6.58258e-05 0
-1.24506e-05 1.94744e-05 0
-2.37184e-05 6.63477e-05 0
-1.18235e-05 6.54431e-05 0
-1.57417e-05 0.000136546 0
-1.77661e-05 6.58258e-05 0
-2.36565e-05 0.000136818 0
-1.57417e-05 0.000136546 0
-1.84291e-05 0.000223871 0
-2.36565e-05 0.000136818 0
-2.76797e-05 0.000224048 0
-1.77661e-05 6.58258e-05 0
-2.36565e-05 0.000136818 0
-2.37184e-05 6.63477e-05 0
-3.16385e-05 0.000137206 0
-2.36565e-05 0.000136818 0
-2.76797e-05 0.000224048 0
-3.16385e-05 0.000137206 0
-3.69677e-05 0.000224293 0
-3.20531e-18 0.000223728 0
-4.45542e-18 0.000321501 0
-9.20707e-06 0.000223763 0
-1.00312e-05 0.000321521 0
-4.45542e-18 0.000321501 0
-5.92969e-18 0.000425109 0
-1.00312e-05 0.000321521 0
-1.04649e-05 0.000425119 0
-9.20707e-06 0.000223763 0
-1.00312e-05 0.000321521 0
-1.84291e-05 0.000223871 0
-2.00723e-05 0.000321582 0
-1.00312e-05 0.000321521 0
-1.04649e-05 0.000425119 0
-2.00723e-05 0.000321582 0
-2.09368e-05 0.000425147 0
-5.92969e-18 0.000425109 0
-5.15112e-18 0.000531311 0
-1.04649e-05 0.000425119 0
-1.064e-05 0.000531314 0
-5.15112e-18 0.000531311 0
-5.91932e-18 0.000638162 0
-1.064e-05 0.000531314 0
-1.06834e-05 0.000638163 0
-1.04649e-05 0.000425119 0
-1.064e-05 0.000531314 0
-2.09368e-05 0.000425147 0
-2.12834e-05 0.000531323 0
-1.064e-05 0.000531314 0
-1.06834e-05 0.000638163 0
-2.12834e-05 0.000531323 0
-2.13676e-05 0.000638165 0
-1.84291e-05 0.000223871 0
-2.00723e-05 0.000321582 0
-2.76797e-05 0.000224048 0
-3.01337e-05 0.000321682 0
-2.00723e-05 0.000321582 0
-2.09368e-05 0.000425147 0
-3.01337e-05 0.000321682 0
-3.14228e-05 0.000425194 0
-2.76797e-05 0.000224048 0
-3.01337e-05 0.000321682 0
-3.69677e-05 0.000224293 0
-4.02271e-05 0.000321823 0
-3.01337e-05 0.000321682 0
-3.14228e-05 0.000425194 0
-4.02271e-05 0.000321823 0
-4.19293e-05 0.000425259 0
-2.09368e-05 0.000425147 0
-2.12834e-05 0.000531323 0
-3.14228e-05 0.000425194 0
-3.19333e-05 0.000531337 0
-2.12834e-05 0.000531323 0
-2.13676e-05 0.000638165 0
-3.19333e-05 0.000531337 0
-3.20536e-05 0.000638169 0
-3.14228e-05 0.000425194 0
-3.19333e-05 0.000531337 0
-4.19293e-05 0.000425259 0
-4.25932e-05 0.000531356 0
-3.19333e-05 0.000531337 0
-3.20536e-05 0.000638169 0
-4.25932e-05 0.000531356 0
-4.27418e-05 0.000638173 0
VECTORS velocity double
0 0 0
7.08067e-06 1.10751e-05 0
0 0 0
5.17661e-06 1.05606e-05 0
7.08067e-06 1.10751e-05 0
1.34887e-05 3.7732e-05 0
5.17661e-06 1.05606e-05 0
1.01036e-05 3.74352e-05 0
0 0 0
5.17661e-06 1.05606e-05 0
0 0 0
3.39366e-06 1.01966e-05 0
5.17661e-06 1.05606e-05 0
1.01036e-05 3.74352e-05 0
3.39366e-06 1.01966e-05 0
6.72406e-06 3.72175e-05 0
1.34887e-05 3.7732e-05 0
1.79929e-05 7.8029e-05 0
1.01036e-05 3.74352e-05 0
1.34535e-05 7.78088e-05 0
1.79929e-05 7.8029e-05 0
2.10236e-05 0.000127556 0
1.34535e-05 7.78088e-05 0
1.57415e-05 0.000127417 0
1.01036e-05 3.74352e-05 0
1.34535e-05 7.78088e-05 0
6.72406e-06 3.72175e-05 0
8.95232e-06 7.76537e-05 0
1.34535e-05 7.78088e-05 0
1.57415e-05 0.000127417 0
8.95232e-06 7.76537e-05 0
1.04807e-05 0.000127316 0
0 0 0
3.39366e-06 1.01966e-05 0
0 0 0
1.68073e-06 9.97968e-06 0
3.39366e-06 1.01966e-05 0
6.72406e-06 3.72175e-05 0
1.68073e-06 9.97968e-06 0
3.3576e-06 3.70848e-05 0
0 0 0
1.68073e-06 9.97968e-06 0
0 0 0
-1.92317e-18 9.90764e-06 0
1.68073e-06 9.97968e-06 0
3.3576e-06 3.70848e-05 0
-1.92317e-18 9.90764e-06 0
-6.0635e-18 3.70402e-05 0
6.72406e-06 3.72175e-05 0
8.95232e-06 7.76537e-05 0
3.3576e-06 3.70848e-05 0
4.4716e-06 7.75613e-05 0
8.95232e-06 7.76537e-05 0
1.04807e-05 0.000127316 0
4.4716e-06 7.75613e-05 0
5.23609e-06 0.000127255 0
3.3576e-06 3.70848e-05 0
4.4716e-06 7.75613e-05 0
-6.0635e-18 3.70402e-05 0
1.95921e-17 7.75306e-05 0
4.4716e-06 7.75613e-05 0
5.23609e-06 0.000127255 0
1.95921e-17 7.75306e-05 0
5.13631e-17 0.000127234 0
2.10236e-05 0.000127556 0
2.28773e-05 0.000183021 0
1.57415e-05 0.000127417 0
1.71371e-05 0.000182941 0
2.28773e-05 0.000183021 0
2.38453e-05 0.000241846 0
1.71371e-05 0.000182941 0
1.78702e-05 0.000241809 0
1.57415e-05 0.000127417 0
1.71371e-05 0.000182941 0
1.04807e-05 0.000127316 0
1.14152e-05 0.000182884 0
1.71371e-05 0.000182941 0
1.78702e-05 0.000241809 0
1.14152e-05 0.000182884 0
1.19068e-05 0.000241782 0
2.38453e-05 0.000241846 0
2.42229e-05 0.000302183 0
1.78702e-05 0.000241809 0
1.81606e-05 0.000302173 0
2.42229e-05 0.000302183 0
2.43074e-05 0.000362931 0
1.81606e-05 0.000302173 0
1.8229e-05 0.000362928 0
1.78702e-05 0.000241809 0
1.81606e-05 0.000302173 0
1.19068e-05 0.000241782 0
1.21039e-05 0.000302164 0
1.81606e-05 0.000302173 0
1.8229e-05 0.000362928 0
1.21039e-05 0.000302164 0
1.21518e-05 0.000362926 0
1.04807e-05 0.000127316 0
1.14152e-05 0.000182884 0
5.23609e-06 0.000127255 0
5.70477e-06 0.00018285 0
1.14152e-05 0.000182884 0
1.19068e-05 0.000241782 0
5.70477e-06 0.00018285 0
5.95141e-06 0.000241766 0
5.23609e-06 0.000127255 0
5.70477e-06 0.00018285 0
5.13631e-17 0.000127234 0
3.63929e-17 0.000182838 0
5.70477e-06 0.00018285 0
5.95141e-06 0.000241766 0
3.63929e-17 0.000182838 0
3.87745e-18 0.000241761 0
1.19068e-05 0.000241782 0
1.21039e-05 0.000302164 0
5.95141e-06 0.000241766 0
6.05102e-06 0.000302159 0
1.21039e-05 0.000302164 0
1.21518e-05 0.000362926 0
6.05102e-06 0.000302159 0
6.07566e-06 0.000362925 0
5.95141e-06 0.000241766 0
6.05102e-06 0.000302159 0
3.87745e-18 0.000241761 0
1.02713e-16 0.000302158 0
6.05102e-06 0.000302159 0
6.07566e-06 0.000362925 0
1.02713e-16 0.000302158 0
1.28281e-16 0.000362924 0
0 0 0
-1.92317e-18 9.90764e-06 0
0 0 0
-1.68073e-06 9.97968e-06 0
-1.92317e-18 9.90764e-06 0
-6.0635e-18 3.70402e-05 0
-1.68073e-06 9.97968e-06 0
-3.3576e-06 3.70848e-05 0
0 0 0
-1.68073e-06 9.97968e-06 0
0 0 0
-3.39366e-06 1.01966e-05 0
-1.68073e-06 9.97968e-06 0
-3.3576e-06 3.70848e-05 0
-3.39366e-06 1.01966e-05 0
-6.72406e-06 3.72175e-05 0
-6.0635e-18 3.70402e-05 0
1.95921e-17 7.75306e-05 0
-3.3576e-06 3.70848e-05 0
-4.4716e-06 7.75613e-05 0
1.95921e-17 7.75306e-05 0
5.13631e-17 0.000127234 0
-4.4716e-06 7.75613e-05 0
-5.23609e-06 0.000127255 0
-3.3576e-06 3.70848e-05 0
-4.4716e-06 7.75613e-05 0
-6.72406e-06 3.72175e-05 0
-8.95232e-06 7.76537e-05 0
-4.4716e-06 7.75613e-05 0
-5.23609e-06 0.000127255 0
-8.95232e-06 7.76537e-05 0
-1.04807e-05 0.000127316 0
0 0 0
-3.39366e-06 1.01966e-05 0
0 0 0
-5.17661e-06 1.05606e-05 0
-3.39366e-06 1.01966e-05 0
-6.72406e-06 3.72175e-05 0
-5.17661e-06 1.05606e-05 0
-1.01036e-05 3.74352e-05 0
0 0 0
-5.17661e-06 1.05606e-05 0
0 0 0
-7.08067e-06 1.10751e-05 0
-5.17661e-06 1.05606e-05 0
-1.01036e-05 3.74352e-05 0
-7.08067e-06 1.10751e-05 0
-1.34887e-05 3.7732e-05 0
-6.72406e-06 3.72175e-05 0
-8.95232e-06 7.76537e-05 0
-1.01036e-05 3.74352e-05 0
-1.34535e-05 7.78088e-05 0
-8.95232e-06 7.76537e-05 0
-1.04807e-05 0.000127316 0
-1.34535e-05 7.78088e-05 0
-1.57415e-05 0.000127417 0
-1.01036e-05 3.74352e-05 0
-1.34535e-05 7.78088e-05 0
-1.34887e-05 3.7732e-05 0
-1.79929e-05 7.8029e-05 0
-1.34535e-05 7.78088e-05 0
-1.57415e-05 0.000127417 0
-1.79929e-05 7.8029e-05 0
-2.10236e-05 0.000127556 0
5.13631e-17 0.000127234 0
3.63929e-17 0.000182838 0
-5.23609e-06 0.000127255 0
-5.70477e-06 0.00018285 0
3.63929e-17 0.000182838 0
3.87745e-18 0.000241761 0
-5.70477e-06 0.00018285 0
-5.95141e-06 0.000241766 0
-5.23609e-06 0.000127255 0
-5.70477e-06 0.00018285 0
-1.04807e-05 0.000127316 0
-1.14152e-05 0.000182884 0
-5.70477e-06 0.00018285 0
-5.95141e-06 0.000241766 0
-1.14152e-05 0.000182884 0
-1.19068e-05 0.000241782 0
3.87745e-18 0.000241761 0
1.02713e-16 0.000302158 0
-5.95141e-06 0.000241766 0
-6.05102e-06 0.000302159 0
1.02713e-16 0.000302158 0
1.28281e-16 0.000362924 0
-6.05102e-06 0.000302159 0
-6.07566e-06 0.000362925 0
-5.95141e-06 0.000241766 0
-6.05102e-06 0.000302159 0
-1.19068e-05 0.000241782 0
-1.21039e-05 0.000302164 0
-6.05102e-06 0.000302159 0
-6.07566e-06 0.000362925 0
-1.21039e-05 0.000302164 0
-1.21518e-05 0.000362926 0
-1.04807e-05 0.000127316 0
-1.14152e-05 0.000182884 0
-1.57415e-05 0.000127417 0
-1.71371e-05 0.000182941 0
-1.14152e-05 0.000182884 0
-1.19068e-05 0.000241782 0
-1.71371e-05 0.000182941 0
-1.78702e-05 0.000241809 0
-1.57415e-05 0.000127417 0
-1.71371e-05 0.000182941 0
-2.10236e-05 0.000127556 0
-2.28773e-05 0.000183021 0
-1.71371e-05 0.000182941 0
-1.78702e-05 0.000241809 0
-2.28773e-05 0.000183021 0
-2.38453e-05 0.000241846 0
-1.19068e-05 0.000241782 0
-1.21039e-05 0.000302164 0
-1.78702e-05 0.000241809 0
-1.81606e-05 0.000302173 0
-1.21039e-05 0.000302164 0
-1.21518e-05 0.000362926 0
-1.81606e-05 0.000302173 0
-1.8229e-05 0.000362928 0
-1.78702e-05 0.000241809 0
-1.81606e-05 0.000302173 0
-2.38453e-05 0.000241846 0
-2.42229e-05 0.000302183 0
-1.81606e-05 0.000302173 0
-1.8229e-05 0.000362928 0
-2.42229e-05 0.000302183 0
-2.43074e-05 0.000362931 0
