# vtk DataFile Version 3.0
#This file was generated by the deal.II library on 2025/3/10 at 16:33:18
ASCII
DATASET UNSTRUCTURED_GRID

FIELD FieldData 1
TIME 1 1 double
3.14
POINTS 256 double
0 0 0
0.625 0 0
0 0.0625 0
0.625 0.0625 0
0.625 0 0
1.25 0 0
0.625 0.0625 0
1.25 0.0625 0
0 0.0625 0
0.625 0.0625 0
0 0.125 0
0.625 0.125 0
0.625 0.0625 0
1.25 0.0625 0
0.625 0.125 0
1.25 0.125 0
1.25 0 0
1.875 0 0
1.25 0.0625 0
1.875 0.0625 0
1.875 0 0
2.5 0 0
1.875 0.0625 0
2.5 0.0625 0
1.25 0.0625 0
1.875 0.0625 0
1.25 0.125 0
1.875 0.125 0
1.875 0.0625 0
2.5 0.0625 0
1.875 0.125 0
2.5 0.125 0
0 0.125 0
0.625 0.125 0
0 0.1875 0
0.625 0.1875 0
0.625 0.125 0
1.25 0.125 0
0.625 0.1875 0
1.25 0.1875 0
0 0.1875 0
0.625 0.1875 0
0 0.25 0
0.625 0.25 0
0.625 0.1875 0
1.25 0.1875 0
0.625 0.25 0
1.25 0.25 0
1.25 0.125 0
1.875 0.125 0
1.25 0.1875 0
1.875 0.1875 0
1.875 0.125 0
2.5 0.125 0
1.875 0.1875 0
2.5 0.1875 0
1.25 0.1875 0
1.875 0.1875 0
1.25 0.25 0
1.875 0.25 0
1.875 0.1875 0
2.5 0.1875 0
1.875 0.25 0
2.5 0.25 0
2.5 0 0
3.125 0 0
2.5 0.0625 0
3.125 0.0625 0
3.125 0 0
3.75 0 0
3.125 0.0625 0
3.75 0.0625 0
2.5 0.0625 0
3.125 0.0625 0
2.5 0.125 0
3.125 0.125 0
3.125 0.0625 0
3.75 0.0625 0
3.125 0.125 0
3.75 0.125 0
3.75 0 0
4.375 0 0
3.75 0.0625 0
4.375 0.0625 0
4.375 0 0
5 0 0
4.375 0.0625 0
5 0.0625 0
3.75 0.0625 0
4.375 0.0625 0
3.75 0.125 0
4.375 0.125 0
4.375 0.0625 0
5 0.0625 0
4.375 0.125 0
5 0.125 0
2.5 0.125 0
3.125 0.125 0
2.5 0.1875 0
3.125 0.1875 0
3.125 0.125 0
3.75 0.125 0
3.125 0.1875 0
3.75 0.1875 0
2.5 0.1875 0
3.125 0.1875 0
2.5 0.25 0
3.125 0.25 0
3.125 0.1875 0
3.75 0.1875 0
3.125 0.25 0
3.75 0.25 0
3.75 0.125 0
4.375 0.125 0
3.75 0.1875 0
4.375 0.1875 0
4.375 0.125 0
5 0.125 0
4.375 0.1875 0
5 0.1875 0
3.75 0.1875 0
4.375 0.1875 0
3.75 0.25 0
4.375 0.25 0
4.375 0.1875 0
5 0.1875 0
4.375 0.25 0
5 0.25 0
0 0.25 0
0.625 0.25 0
0 0.3125 0
0.625 0.3125 0
0.625 0.25 0
1.25 0.25 0
0.625 0.3125 0
1.25 0.3125 0
0 0.3125 0
0.625 0.3125 0
0 0.375 0
0.625 0.375 0
0.625 0.3125 0
1.25 0.3125 0
0.625 0.375 0
1.25 0.375 0
1.25 0.25 0
1.875 0.25 0
1.25 0.3125 0
1.875 0.3125 0
1.875 0.25 0
2.5 0.25 0
1.875 0.3125 0
2.5 0.3125 0
1.25 0.3125 0
1.875 0.3125 0
1.25 0.375 0
1.875 0.375 0
1.875 0.3125 0
2.5 0.3125 0
1.875 0.375 0
2.5 0.375 0
0 0.375 0
0.625 0.375 0
0 0.4375 0
0.625 0.4375 0
0.625 0.375 0
1.25 0.375 0
0.625 0.4375 0
1.25 0.4375 0
0 0.4375 0
0.625 0.4375 0
0 0.5 0
0.625 0.5 0
0.625 0.4375 0
1.25 0.4375 0
0.625 0.5 0
1.25 0.5 0
1.25 0.375 0
1.875 0.375 0
1.25 0.4375 0
1.875 0.4375 0
1.875 0.375 0
2.5 0.375 0
1.875 0.4375 0
2.5 0.4375 0
1.25 0.4375 0
1.875 0.4375 0
1.25 0.5 0
1.875 0.5 0
1.875 0.4375 0
2.5 0.4375 0
1.875 0.5 0
2.5 0.5 0
2.5 0.25 0
3.125 0.25 0
2.5 0.3125 0
3.125 0.3125 0
3.125 0.25 0
3.75 0.25 0
3.125 0.3125 0
3.75 0.3125 0
2.5 0.3125 0
3.125 0.3125 0
2.5 0.375 0
3.125 0.375 0
3.125 0.3125 0
3.75 0.3125 0
3.125 0.375 0
3.75 0.375 0
3.75 0.25 0
4.375 0.25 0
3.75 0.3125 0
4.375 0.3125 0
4.375 0.25 0
5 0.25 0
4.375 0.3125 0
5 0.3125 0
3.75 0.3125 0
4.375 0.3125 0
3.75 0.375 0
4.375 0.375 0
4.375 0.3125 0
5 0.3125 0
4.375 0.375 0
5 0.375 0
2.5 0.375 0
3.125 0.375 0
2.5 0.4375 0
3.125 0.4375 0
3.125 0.375 0
3.75 0.375 0
3.125 0.4375 0
3.75 0.4375 0
2.5 0.4375 0
3.125 0.4375 0
2.5 0.5 0
3.125 0.5 0
3.125 0.4375 0
3.75 0.4375 0
3.125 0.5 0
3.75 0.5 0
3.75 0.375 0
4.375 0.375 0
3.75 0.4375 0
4.375 0.4375 0
4.375 0.375 0
5 0.375 0
4.375 0.4375 0
5 0.4375 0
3.75 0.4375 0
4.375 0.4375 0
3.75 0.5 0
4.375 0.5 0
4.375 0.4375 0
5 0.4375 0
4.375 0.5 0
5 0.5 0

CELLS 64 320
4	0	1	3	2
4	4	5	7	6
4	8	9	11	10
4	12	13	15	14
4	16	17	19	18
4	20	21	23	22
4	24	25	27	26
4	28	29	31	30
4	32	33	35	34
4	36	37	39	38
4	40	41	43	42
4	44	45	47	46
4	48	49	51	50
4	52	53	55	54
4	56	57	59	58
4	60	61	63	62
4	64	65	67	66
4	68	69	71	70
4	72	73	75	74
4	76	77	79	78
4	80	81	83	82
4	84	85	87	86
4	88	89	91	90
4	92	93	95	94
4	96	97	99	98
4	100	101	103	102
4	104	105	107	106
4	108	109	111	110
4	112	113	115	114
4	116	117	119	118
4	120	121	123	122
4	124	125	127	126
4	128	129	131	130
4	132	133	135	134
4	136	137	139	138
4	140	141	143	142
4	144	145	147	146
4	148	149	151	150
4	152	153	155	154
4	156	157	159	158
4	160	161	163	162
4	164	165	167	166
4	168	169	171	170
4	172	173	175	174
4	176	177	179	178
4	180	181	183	182
4	184	185	187	186
4	188	189	191	190
4	192	193	195	194
4	196	197	199	198
4	200	201	203	202
4	204	205	207	206
4	208	209	211	210
4	212	213	215	214
4	216	217	219	218
4	220	221	223	222
4	224	225	227	226
4	228	229	231	230
4	232	233	235	234
4	236	237	239	238
4	240	241	243	242
4	244	245	247	246
4	248	249	251	250
4	252	253	255	254

CELL_TYPES 64
 9 9 9 9 9 9 9 9 9 9 9 9 9 9 9 9 9 9 9 9 9 9 9 9 9 9 9 9 9 9 9 9 9 9 9 9 9 9 9 9 9 9 9 9 9 9 9 9 9 9 9 9 9 9 9 9 9 9 9 9 9 9 9 9
POINT_DATA 256
VECTORS displacement double
0 0 0
2.28463e-08 3.5726e-08 0
0 0 0
1.67031e-08 3.40658e-08 0
2.28463e-08 3.5726e-08 0
4.35324e-08 1.21745e-07 0
1.67031e-08 3.40658e-08 0
3.26077e-08 1.20786e-07 0
0 0 0
1.67031e-08 3.40658e-08 0
0 0 0
1.09503e-08 3.2891e-08 0
1.67031e-08 3.40658e-08 0
3.26077e-08 1.20786e-07 0
1.09503e-08 3.2891e-08 0
2.17008e-08 1.20083e-07 0
4.35324e-08 1.21745e-07 0
5.80808e-08 2.51809e-07 0
3.26077e-08 1.20786e-07 0
4.34278e-08 2.51097e-07 0
5.80808e-08 2.51809e-07 0
6.78758e-08 4.11695e-07 0
4.34278e-08 2.51097e-07 0
5.08221e-08 4.11245e-07 0
3.26077e-08 1.20786e-07 0
4.34278e-08 2.51097e-07 0
2.17008e-08 1.20083e-07 0
2.8898e-08 2.50596e-07 0
4.34278e-08 2.51097e-07 0
5.08221e-08 4.11245e-07 0
2.8898e-08 2.50596e-07 0
3.38373e-08 4.10918e-07 0
0 0 0
1.09503e-08 3.2891e-08 0
0 0 0
5.42326e-09 3.2191e-08 0
1.09503e-08 3.2891e-08 0
2.17008e-08 1.20083e-07 0
5.42326e-09 3.2191e-08 0
1.08361e-08 1.19655e-07 0
0 0 0
5.42326e-09 3.2191e-08 0
0 0 0
-9.76346e-22 3.19584e-08 0
5.42326e-09 3.2191e-08 0
1.08361e-08 1.19655e-07 0
-9.76346e-22 3.19584e-08 0
-2.4284e-21 1.19511e-07 0
2.17008e-08 1.20083e-07 0
2.8898e-08 2.50596e-07 0
1.08361e-08 1.19655e-07 0
1.44343e-08 2.50298e-07 0
2.8898e-08 2.50596e-07 0
3.38373e-08 4.10918e-07 0
1.44343e-08 2.50298e-07 0
1.69049e-08 4.10722e-07 0
1.08361e-08 1.19655e-07 0
1.44343e-08 2.50298e-07 0
-2.4284e-21 1.19511e-07 0
-3.91445e-21 2.50199e-07 0
1.44343e-08 2.50298e-07 0
1.69049e-08 4.10722e-07 0
-3.91445e-21 2.50199e-07 0
-4.5949e-21 4.10656e-07 0
6.78758e-08 4.11695e-07 0
7.38699e-08 5.90781e-07 0
5.08221e-08 4.11245e-07 0
5.5335e-08 5.90523e-07 0
7.38699e-08 5.90781e-07 0
7.70022e-08 7.80733e-07 0
5.5335e-08 5.90523e-07 0
5.7707e-08 7.80614e-07 0
5.08221e-08 4.11245e-07 0
5.5335e-08 5.90523e-07 0
3.38373e-08 4.10918e-07 0
3.68592e-08 5.90338e-07 0
5.5335e-08 5.90523e-07 0
5.7707e-08 7.80614e-07 0
3.68592e-08 5.90338e-07 0
3.84498e-08 7.80528e-07 0
7.70022e-08 7.80733e-07 0
7.82246e-08 9.75583e-07 0
5.7707e-08 7.80614e-07 0
5.86471e-08 9.75548e-07 0
7.82246e-08 9.75583e-07 0
7.84982e-08 1.17176e-06 0
5.86471e-08 9.75548e-07 0
5.88686e-08 1.17175e-06 0
5.7707e-08 7.80614e-07 0
5.86471e-08 9.75548e-07 0
3.84498e-08 7.80528e-07 0
3.90879e-08 9.75522e-07 0
5.86471e-08 9.75548e-07 0
5.88686e-08 1.17175e-06 0
3.90879e-08 9.75522e-07 0
3.92431e-08 1.17175e-06 0
3.38373e-08 4.10918e-07 0
3.68592e-08 5.90338e-07 0
1.69049e-08 4.10722e-07 0
1.84204e-08 5.90226e-07 0
3.68592e-08 5.90338e-07 0
3.84498e-08 7.80528e-07 0
1.84204e-08 5.90226e-07 0
1.92185e-08 7.80475e-07 0
1.69049e-08 4.10722e-07 0
1.84204e-08 5.90226e-07 0
-4.5949e-21 4.10656e-07 0
-6.01065e-21 5.90189e-07 0
1.84204e-08 5.90226e-07 0
1.92185e-08 7.80475e-07 0
-6.01065e-21 5.90189e-07 0
-7.20816e-21 7.80458e-07 0
3.84498e-08 7.80528e-07 0
3.90879e-08 9.75522e-07 0
1.92185e-08 7.80475e-07 0
1.95409e-08 9.75505e-07 0
3.90879e-08 9.75522e-07 0
3.92431e-08 1.17175e-06 0
1.95409e-08 9.75505e-07 0
1.96207e-08 1.17174e-06 0
1.92185e-08 7.80475e-07 0
1.95409e-08 9.75505e-07 0
-7.20816e-21 7.80458e-07 0
-6.98674e-21 9.755e-07 0
1.95409e-08 9.75505e-07 0
1.96207e-08 1.17174e-06 0
-6.98674e-21 9.755e-07 0
-1.00261e-20 1.17174e-06 0
0 0 0
-9.76346e-22 3.19584e-08 0
0 0 0
-5.42326e-09 3.2191e-08 0
-9.76346e-22 3.19584e-08 0
-2.4284e-21 1.19511e-07 0
-5.42326e-09 3.2191e-08 0
-1.08361e-08 1.19655e-07 0
0 0 0
-5.42326e-09 3.2191e-08 0
0 0 0
-1.09503e-08 3.2891e-08 0
-5.42326e-09 3.2191e-08 0
-1.08361e-08 1.19655e-07 0
-1.09503e-08 3.2891e-08 0
-2.17008e-08 1.20083e-07 0
-2.4284e-21 1.19511e-07 0
-3.91445e-21 2.50199e-07 0
-1.08361e-08 1.19655e-07 0
-1.44343e-08 2.50298e-07 0
-3.91445e-21 2.50199e-07 0
-4.5949e-21 4.10656e-07 0
-1.44343e-08 2.50298e-07 0
-1.69049e-08 4.10722e-07 0
-1.08361e-08 1.19655e-07 0
-1.44343e-08 2.50298e-07 0
-2.17008e-08 1.20083e-07 0
-2.8898e-08 2.50596e-07 0
-1.44343e-08 2.50298e-07 0
-1.69049e-08 4.10722e-07 0
-2.8898e-08 2.50596e-07 0
-3.38373e-08 4.10918e-07 0
0 0 0
-1.09503e-08 3.2891e-08 0
0 0 0
-1.67031e-08 3.40658e-08 0
-1.09503e-08 3.2891e-08 0
-2.17008e-08 1.20083e-07 0
-1.67031e-08 3.40658e-08 0
-3.26077e-08 1.20786e-07 0
0 0 0
-1.67031e-08 3.40658e-08 0
0 0 0
-2.28463e-08 3.5726e-08 0
-1.67031e-08 3.40658e-08 0
-3.26077e-08 1.20786e-07 0
-2.28463e-08 3.5726e-08 0
-4.35324e-08 1.21745e-07 0
-2.17008e-08 1.20083e-07 0
-2.8898e-08 2.50596e-07 0
-3.26077e-08 1.20786e-07 0
-4.34278e-08 2.51097e-07 0
-2.8898e-08 2.50596e-07 0
-3.38373e-08 4.10918e-07 0
-4.34278e-08 2.51097e-07 0
-5.08221e-08 4.11245e-07 0
-3.26077e-08 1.20786e-07 0
-4.34278e-08 2.51097e-07 0
-4.35324e-08 1.21745e-07 0
-5.80808e-08 2.51809e-07 0
-4.34278e-08 2.51097e-07 0
-5.08221e-08 4.11245e-07 0
-5.80808e-08 2.51809e-07 0
-6.78758e-08 4.11695e-07 0
-4.5949e-21 4.10656e-07 0
-6.01065e-21 5.90189e-07 0
-1.69049e-08 4.10722e-07 0
-1.84204e-08 5.90226e-07 0
-6.01065e-21 5.90189e-07 0
-7.20816e-21 7.80458e-07 0
-1.84204e-08 5.90226e-07 0
-1.92185e-08 7.80475e-07 0
-1.69049e-08 4.10722e-07 0
-1.84204e-08 5.90226e-07 0
-3.38373e-08 4.10918e-07 0
-3.68592e-08 5.90338e-07 0
-1.84204e-08 5.90226e-07 0
-1.92185e-08 7.80475e-07 0
-3.68592e-08 5.90338e-07 0
-3.84498e-08 7.80528e-07 0
-7.20816e-21 7.80458e-07 0
-6.98674e-21 9.755e-07 0
-1.92185e-08 7.80475e-07 0
-1.95409e-08 9.75505e-07 0
-6.98674e-21 9.755e-07 0
-1.00261e-20 1.17174e-06 0
-1.95409e-08 9.75505e-07 0
-1.96207e-08 1.17174e-06 0
-1.92185e-08 7.80475e-07 0
-1.95409e-08 9.75505e-07 0
-3.84498e-08 7.80528e-07 0
-3.90879e-08 9.75522e-07 0
-1.95409e-08 9.75505e-07 0
-1.96207e-08 1.17174e-06 0
-3.90879e-08 9.75522e-07 0
-3.92431e-08 1.17175e-06 0
-3.38373e-08 4.10918e-07 0
-3.68592e-08 5.90338e-07 0
-5.08221e-08 4.11245e-07 0
-5.5335e-08 5.90523e-07 0
-3.68592e-08 5.90338e-07 0
-3.84498e-08 7.80528e-07 0
-5.5335e-08 5.90523e-07 0
-5.7707e-08 7.80614e-07 0
-5.08221e-08 4.11245e-07 0
-5.5335e-08 5.90523e-07 0
-6.78758e-08 4.11695e-07 0
-7.38699e-08 5.90781e-07 0
-5.5335e-08 5.90523e-07 0
-5.7707e-08 7.80614e-07 0
-7.38699e-08 5.90781e-07 0
-7.70022e-08 7.80733e-07 0
-3.84498e-08 7.80528e-07 0
-3.90879e-08 9.75522e-07 0
-5.7707e-08 7.80614e-07 0
-5.86471e-08 9.75548e-07 0
-3.90879e-08 9.75522e-07 0
-3.92431e-08 1.17175e-06 0
-5.86471e-08 9.75548e-07 0
-5.88686e-08 1.17175e-06 0
-5.7707e-08 7.80614e-07 0
-5.86471e-08 9.75548e-07 0
-7.70022e-08 7.80733e-07 0
-7.82246e-08 9.75583e-07 0
-5.86471e-08 9.75548e-07 0
-5.88686e-08 1.17175e-06 0
-7.82246e-08 9.75583e-07 0
-7.84982e-08 1.17176e-06 0
VECTORS velocity double
0 0 0
-1.42472e-05 -2.22846e-05 0
0 0 0
-1.0416e-05 -2.12494e-05 0
-1.42472e-05 -2.22846e-05 0
-2.7141e-05 -7.59216e-05 0
-1.0416e-05 -2.12494e-05 0
-2.03297e-05 -7.53244e-05 0
0 0 0
-1.0416e-05 -2.12494e-05 0
0 0 0
-6.82847e-06 -2.05169e-05 0
-1.0416e-05 -2.12494e-05 0
-2.03297e-05 -7.53244e-05 0
-6.82847e-06 -2.05169e-05 0
-1.35297e-05 -7.48864e-05 0
-2.7141e-05 -7.59216e-05 0
-3.62039e-05 -0.000157004 0
-2.03297e-05 -7.53244e-05 0
-2.70702e-05 -0.000156561 0
-3.62039e-05 -0.000157004 0
-4.23022e-05 -0.000256658 0
-2.70702e-05 -0.000156561 0
-3.16738e-05 -0.000256378 0
-2.03297e-05 -7.53244e-05 0
-2.70702e-05 -0.000156561 0
-1.35297e-05 -7.48864e-05 0
-1.80132e-05 -0.000156249 0
-2.70702e-05 -0.000156561 0
-3.16738e-05 -0.000256378 0
-1.80132e-05 -0.000156249 0
-2.10884e-05 -0.000256175 0
0 0 0
-6.82847e-06 -2.05169e-05 0
0 0 0
-3.38183e-06 -2.00804e-05 0
-6.82847e-06 -2.05169e-05 0
-1.35297e-05 -7.48864e-05 0
-3.38183e-06 -2.00804e-05 0
-6.75591e-06 -7.46194e-05 0
0 0 0
-3.38183e-06 -2.00804e-05 0
0 0 0
1.08744e-18 -1.99354e-05 0
-3.38183e-06 -2.00804e-05 0
-6.75591e-06 -7.46194e-05 0
1.08744e-18 -1.99354e-05 0
2.40732e-18 -7.45297e-05 0
-1.35297e-05 -7.48864e-05 0
-1.80132e-05 -0.000156249 0
-6.75591e-06 -7.46194e-05 0
-8.99741e-06 -0.000156063 0
-1.80132e-05 -0.000156249 0
-2.10884e-05 -0.000256175 0
-8.99741e-06 -0.000156063 0
-1.05357e-05 -0.000256052 0
-6.75591e-06 -7.46194e-05 0
-8.99741e-06 -0.000156063 0
2.40732e-18 -7.45297e-05 0
3.82995e-18 -0.000156001 0
-8.99741e-06 -0.000156063 0
-1.05357e-05 -0.000256052 0
3.82995e-18 -0.000156001 0
5.2074e-18 -0.000256011 0
-4.23022e-05 -0.000256658 0
-4.60319e-05 -0.000368262 0
-3.16738e-05 -0.000256378 0
-3.4482e-05 -0.000368101 0
-4.60319e-05 -0.000368262 0
-4.79797e-05 -0.000486624 0
-3.4482e-05 -0.000368101 0
-3.59571e-05 -0.00048655 0
-3.16738e-05 -0.000256378 0
-3.4482e-05 -0.000368101 0
-2.10884e-05 -0.000256175 0
-2.29688e-05 -0.000367986 0
-3.4482e-05 -0.000368101 0
-3.59571e-05 -0.00048655 0
-2.29688e-05 -0.000367986 0
-2.3958e-05 -0.000486496 0
-4.79797e-05 -0.000486624 0
-4.87394e-05 -0.000608031 0
-3.59571e-05 -0.00048655 0
-3.65413e-05 -0.000608009 0
-4.87394e-05 -0.000608031 0
-4.89094e-05 -0.000730261 0
-3.65413e-05 -0.000608009 0
-3.66789e-05 -0.000730257 0
-3.59571e-05 -0.00048655 0
-3.65413e-05 -0.000608009 0
-2.3958e-05 -0.000486496 0
-2.43546e-05 -0.000607992 0
-3.65413e-05 -0.000608009 0
-3.66789e-05 -0.000730257 0
-2.43546e-05 -0.000607992 0
-2.4451e-05 -0.000730253 0
-2.10884e-05 -0.000256175 0
-2.29688e-05 -0.000367986 0
-1.05357e-05 -0.000256052 0
-1.14787e-05 -0.000367917 0
-2.29688e-05 -0.000367986 0
-2.3958e-05 -0.000486496 0
-1.14787e-05 -0.000367917 0
-1.1975e-05 -0.000486464 0
-1.05357e-05 -0.000256052 0
-1.14787e-05 -0.000367917 0
5.2074e-18 -0.000256011 0
6.05399e-18 -0.000367894 0
-1.14787e-05 -0.000367917 0
-1.1975e-05 -0.000486464 0
6.05399e-18 -0.000367894 0
6.53105e-18 -0.000486453 0
-2.3958e-05 -0.000486496 0
-2.43546e-05 -0.000607992 0
-1.1975e-05 -0.000486464 0
-1.21754e-05 -0.000607982 0
-2.43546e-05 -0.000607992 0
-2.4451e-05 -0.000730253 0
-1.21754e-05 -0.000607982 0
-1.2225e-05 -0.00073025 0
-1.1975e-05 -0.000486464 0
-1.21754e-05 -0.000607982 0
6.53105e-18 -0.000486453 0
8.78903e-18 -0.000607979 0
-1.21754e-05 -0.000607982 0
-1.2225e-05 -0.00073025 0
8.78903e-18 -0.000607979 0
8.85606e-18 -0.000730249 0
0 0 0
1.08744e-18 -1.99354e-05 0
0 0 0
3.38183e-06 -2.00804e-05 0
1.08744e-18 -1.99354e-05 0
2.40732e-18 -7.45297e-05 0
3.38183e-06 -2.00804e-05 0
6.75591e-06 -7.46194e-05 0
0 0 0
3.38183e-06 -2.00804e-05 0
0 0 0
6.82847e-06 -2.05169e-05 0
3.38183e-06 -2.00804e-05 0
6.75591e-06 -7.46194e-05 0
6.82847e-06 -2.05169e-05 0
1.35297e-05 -7.48864e-05 0
2.40732e-18 -7.45297e-05 0
3.82995e-18 -0.000156001 0
6.75591e-06 -7.46194e-05 0
8.99741e-06 -0.000156063 0
3.82995e-18 -0.000156001 0
5.2074e-18 -0.000256011 0
8.99741e-06 -0.000156063 0
1.05357e-05 -0.000256052 0
6.75591e-06 -7.46194e-05 0
8.99741e-06 -0.000156063 0
1.35297e-05 -7.48864e-05 0
1.80132e-05 -0.000156249 0
8.99741e-06 -0.000156063 0
1.05357e-05 -0.000256052 0
1.80132e-05 -0.000156249 0
2.10884e-05 -0.000256175 0
0 0 0
6.82847e-06 -2.05169e-05 0
0 0 0
1.0416e-05 -2.12494e-05 0
6.82847e-06 -2.05169e-05 0
1.35297e-05 -7.48864e-05 0
1.0416e-05 -2.12494e-05 0
2.03297e-05 -7.53244e-05 0
0 0 0
1.0416e-05 -2.12494e-05 0
0 0 0
1.42472e-05 -2.22846e-05 0
1.0416e-05 -2.12494e-05 0
2.03297e-05 -7.53244e-05 0
1.42472e-05 -2.22846e-05 0
2.7141e-05 -7.59216e-05 0
1.35297e-05 -7.48864e-05 0
1.80132e-05 -0.000156249 0
2.03297e-05 -7.53244e-05 0
2.70702e-05 -0.000156561 0
1.80132e-05 -0.000156249 0
2.10884e-05 -0.000256175 0
2.70702e-05 -0.000156561 0
3.16738e-05 -0.000256378 0
2.03297e-05 -7.53244e-05 0
2.70702e-05 -0.000156561 0
2.7141e-05 -7.59216e-05 0
3.62039e-05 -0.000157004 0
2.70702e-05 -0.000156561 0
3.16738e-05 -0.000256378 0
3.62039e-05 -0.000157004 0
4.23022e-05 -0.000256658 0
5.2074e-18 -0.000256011 0
6.05399e-18 -0.000367894 0
1.05357e-05 -0.000256052 0
1.14787e-05 -0.000367917 0
6.05399e-18 -0.000367894 0
6.53105e-18 -0.000486453 0
1.14787e-05 -0.000367917 0
1.1975e-05 -0.000486464 0
1.05357e-05 -0.000256052 0
1.14787e-05 -0.000367917 0
2.10884e-05 -0.000256175 0
2.29688e-05 -0.000367986 0
1.14787e-05 -0.000367917 0
1.1975e-05 -0.000486464 0
2.29688e-05 -0.000367986 0
2.3958e-05 -0.000486496 0
6.53105e-18 -0.000486453 0
8.78903e-18 -0.000607979 0
1.1975e-05 -0.000486464 0
1.21754e-05 -0.000607982 0
8.78903e-18 -0.000607979 0
8.85606e-18 -0.000730249 0
1.21754e-05 -0.000607982 0
1.2225e-05 -0.00073025 0
1.1975e-05 -0.000486464 0
1.21754e-05 -0.000607982 0
2.3958e-05 -0.000486496 0
2.43546e-05 -0.000607992 0
1.21754e-05 -0.000607982 0
1.2225e-05 -0.00073025 0
2.43546e-05 -0.000607992 0
2.4451e-05 -0.000730253 0
2.10884e-05 -0.000256175 0
2.29688e-05 -0.000367986 0
3.16738e-05 -0.000256378 0
3.4482e-05 -0.000368101 0
2.29688e-05 -0.000367986 0
2.3958e-05 -0.000486496 0
3.4482e-05 -0.000368101 0
3.59571e-05 -0.00048655 0
3.16738e-05 -0.000256378 0
3.4482e-05 -0.000368101 0
4.23022e-05 -0.000256658 0
4.60319e-05 -0.000368262 0
3.4482e-05 -0.000368101 0
3.59571e-05 -0.00048655 0
4.60319e-05 -0.000368262 0
4.79797e-05 -0.000486624 0
2.3958e-05 -0.000486496 0
2.43546e-05 -0.000607992 0
3.59571e-05 -0.00048655 0
3.65413e-05 -0.000608009 0
2.43546e-05 -0.000607992 0
2.4451e-05 -0.000730253 0
3.65413e-05 -0.000608009 0
3.66789e-05 -0.000730257 0
3.59571e-05 -0.00048655 0
3.65413e-05 -0.000608009 0
4.79797e-05 -0.000486624 0
4.87394e-05 -0.000608031 0
3.65413e-05 -0.000608009 0
3.66789e-05 -0.000730257 0
4.87394e-05 -0.000608031 0
4.89094e-05 -0.000730261 0
