# vtk DataFile Version 3.0
#This file was generated by the deal.II library on 2025/3/10 at 16:35:03
ASCII
DATASET UNSTRUCTURED_GRID

FIELD FieldData 1
TIME 1 1 double
4.72833
POINTS 256 double
0 0 0
0.625 0 0
0 0.0625 0
0.625 0.0625 0
0.625 0 0
1.25 0 0
0.625 0.0625 0
1.25 0.0625 0
0 0.0625 0
0.625 0.0625 0
0 0.125 0
0.625 0.125 0
0.625 0.0625 0
1.25 0.0625 0
0.625 0.125 0
1.25 0.125 0
1.25 0 0
1.875 0 0
1.25 0.0625 0
1.875 0.0625 0
1.875 0 0
2.5 0 0
1.875 0.0625 0
2.5 0.0625 0
1.25 0.0625 0
1.875 0.0625 0
1.25 0.125 0
1.875 0.125 0
1.875 0.0625 0
2.5 0.0625 0
1.875 0.125 0
2.5 0.125 0
0 0.125 0
0.625 0.125 0
0 0.1875 0
0.625 0.1875 0
0.625 0.125 0
1.25 0.125 0
0.625 0.1875 0
1.25 0.1875 0
0 0.1875 0
0.625 0.1875 0
0 0.25 0
0.625 0.25 0
0.625 0.1875 0
1.25 0.1875 0
0.625 0.25 0
1.25 0.25 0
1.25 0.125 0
1.875 0.125 0
1.25 0.1875 0
1.875 0.1875 0
1.875 0.125 0
2.5 0.125 0
1.875 0.1875 0
2.5 0.1875 0
1.25 0.1875 0
1.875 0.1875 0
1.25 0.25 0
1.875 0.25 0
1.875 0.1875 0
2.5 0.1875 0
1.875 0.25 0
2.5 0.25 0
2.5 0 0
3.125 0 0
2.5 0.0625 0
3.125 0.0625 0
3.125 0 0
3.75 0 0
3.125 0.0625 0
3.75 0.0625 0
2.5 0.0625 0
3.125 0.0625 0
2.5 0.125 0
3.125 0.125 0
3.125 0.0625 0
3.75 0.0625 0
3.125 0.125 0
3.75 0.125 0
3.75 0 0
4.375 0 0
3.75 0.0625 0
4.375 0.0625 0
4.375 0 0
5 0 0
4.375 0.0625 0
5 0.0625 0
3.75 0.0625 0
4.375 0.0625 0
3.75 0.125 0
4.375 0.125 0
4.375 0.0625 0
5 0.0625 0
4.375 0.125 0
5 0.125 0
2.5 0.125 0
3.125 0.125 0
2.5 0.1875 0
3.125 0.1875 0
3.125 0.125 0
3.75 0.125 0
3.125 0.1875 0
3.75 0.1875 0
2.5 0.1875 0
3.125 0.1875 0
2.5 0.25 0
3.125 0.25 0
3.125 0.1875 0
3.75 0.1875 0
3.125 0.25 0
3.75 0.25 0
3.75 0.125 0
4.375 0.125 0
3.75 0.1875 0
4.375 0.1875 0
4.375 0.125 0
5 0.125 0
4.375 0.1875 0
5 0.1875 0
3.75 0.1875 0
4.375 0.1875 0
3.75 0.25 0
4.375 0.25 0
4.375 0.1875 0
5 0.1875 0
4.375 0.25 0
5 0.25 0
0 0.25 0
0.625 0.25 0
0 0.3125 0
0.625 0.3125 0
0.625 0.25 0
1.25 0.25 0
0.625 0.3125 0
1.25 0.3125 0
0 0.3125 0
0.625 0.3125 0
0 0.375 0
0.625 0.375 0
0.625 0.3125 0
1.25 0.3125 0
0.625 0.375 0
1.25 0.375 0
1.25 0.25 0
1.875 0.25 0
1.25 0.3125 0
1.875 0.3125 0
1.875 0.25 0
2.5 0.25 0
1.875 0.3125 0
2.5 0.3125 0
1.25 0.3125 0
1.875 0.3125 0
1.25 0.375 0
1.875 0.375 0
1.875 0.3125 0
2.5 0.3125 0
1.875 0.375 0
2.5 0.375 0
0 0.375 0
0.625 0.375 0
0 0.4375 0
0.625 0.4375 0
0.625 0.375 0
1.25 0.375 0
0.625 0.4375 0
1.25 0.4375 0
0 0.4375 0
0.625 0.4375 0
0 0.5 0
0.625 0.5 0
0.625 0.4375 0
1.25 0.4375 0
0.625 0.5 0
1.25 0.5 0
1.25 0.375 0
1.875 0.375 0
1.25 0.4375 0
1.875 0.4375 0
1.875 0.375 0
2.5 0.375 0
1.875 0.4375 0
2.5 0.4375 0
1.25 0.4375 0
1.875 0.4375 0
1.25 0.5 0
1.875 0.5 0
1.875 0.4375 0
2.5 0.4375 0
1.875 0.5 0
2.5 0.5 0
2.5 0.25 0
3.125 0.25 0
2.5 0.3125 0
3.125 0.3125 0
3.125 0.25 0
3.75 0.25 0
3.125 0.3125 0
3.75 0.3125 0
2.5 0.3125 0
3.125 0.3125 0
2.5 0.375 0
3.125 0.375 0
3.125 0.3125 0
3.75 0.3125 0
3.125 0.375 0
3.75 0.375 0
3.75 0.25 0
4.375 0.25 0
3.75 0.3125 0
4.375 0.3125 0
4.375 0.25 0
5 0.25 0
4.375 0.3125 0
5 0.3125 0
3.75 0.3125 0
4.375 0.3125 0
3.75 0.375 0
4.375 0.375 0
4.375 0.3125 0
5 0.3125 0
4.375 0.375 0
5 0.375 0
2.5 0.375 0
3.125 0.375 0
2.5 0.4375 0
3.125 0.4375 0
3.125 0.375 0
3.75 0.375 0
3.125 0.4375 0
3.75 0.4375 0
2.5 0.4375 0
3.125 0.4375 0
2.5 0.5 0
3.125 0.5 0
3.125 0.4375 0
3.75 0.4375 0
3.125 0.5 0
3.75 0.5 0
3.75 0.375 0
4.375 0.375 0
3.75 0.4375 0
4.375 0.4375 0
4.375 0.375 0
5 0.375 0
4.375 0.4375 0
5 0.4375 0
3.75 0.4375 0
4.375 0.4375 0
3.75 0.5 0
4.375 0.5 0
4.375 0.4375 0
5 0.4375 0
4.375 0.5 0
5 0.5 0

CELLS 64 320
4	0	1	3	2
4	4	5	7	6
4	8	9	11	10
4	12	13	15	14
4	16	17	19	18
4	20	21	23	22
4	24	25	27	26
4	28	29	31	30
4	32	33	35	34
4	36	37	39	38
4	40	41	43	42
4	44	45	47	46
4	48	49	51	50
4	52	53	55	54
4	56	57	59	58
4	60	61	63	62
4	64	65	67	66
4	68	69	71	70
4	72	73	75	74
4	76	77	79	78
4	80	81	83	82
4	84	85	87	86
4	88	89	91	90
4	92	93	95	94
4	96	97	99	98
4	100	101	103	102
4	104	105	107	106
4	108	109	111	110
4	112	113	115	114
4	116	117	119	118
4	120	121	123	122
4	124	125	127	126
4	128	129	131	130
4	132	133	135	134
4	136	137	139	138
4	140	141	143	142
4	144	145	147	146
4	148	149	151	150
4	152	153	155	154
4	156	157	159	158
4	160	161	163	162
4	164	165	167	166
4	168	169	171	170
4	172	173	175	174
4	176	177	179	178
4	180	181	183	182
4	184	185	187	186
4	188	189	191	190
4	192	193	195	194
4	196	197	199	198
4	200	201	203	202
4	204	205	207	206
4	208	209	211	210
4	212	213	215	214
4	216	217	219	218
4	220	221	223	222
4	224	225	227	226
4	228	229	231	230
4	232	233	235	234
4	236	237	239	238
4	240	241	243	242
4	244	245	247	246
4	248	249	251	250
4	252	253	255	254

CELL_TYPES 64
 9 9 9 9 9 9 9 9 9 9 9 9 9 9 9 9 9 9 9 9 9 9 9 9 9 9 9 9 9 9 9 9 9 9 9 9 9 9 9 9 9 9 9 9 9 9 9 9 9 9 9 9 9 9 9 9 9 9 9 9 9 9 9 9
POINT_DATA 256
VECTORS displacement double
0 0 0
-1.42471e-05 -2.22844e-05 0
0 0 0
-1.04159e-05 -2.12493e-05 0
-1.42471e-05 -2.22844e-05 0
-2.71408e-05 -7.59212e-05 0
-1.04159e-05 -2.12493e-05 0
-2.03296e-05 -7.53239e-05 0
0 0 0
-1.04159e-05 -2.12493e-05 0
0 0 0
-6.82843e-06 -2.05168e-05 0
-1.04159e-05 -2.12493e-05 0
-2.03296e-05 -7.53239e-05 0
-6.82843e-06 -2.05168e-05 0
-1.35296e-05 -7.4886e-05 0
-2.71408e-05 -7.59212e-05 0
-3.62037e-05 -0.000157003 0
-2.03296e-05 -7.53239e-05 0
-2.707e-05 -0.00015656 0
-3.62037e-05 -0.000157003 0
-4.23019e-05 -0.000256657 0
-2.707e-05 -0.00015656 0
-3.16736e-05 -0.000256376 0
-2.03296e-05 -7.53239e-05 0
-2.707e-05 -0.00015656 0
-1.35296e-05 -7.4886e-05 0
-1.80131e-05 -0.000156248 0
-2.707e-05 -0.00015656 0
-3.16736e-05 -0.000256376 0
-1.80131e-05 -0.000156248 0
-2.10883e-05 -0.000256173 0
0 0 0
-6.82843e-06 -2.05168e-05 0
0 0 0
-3.38181e-06 -2.00803e-05 0
-6.82843e-06 -2.05168e-05 0
-1.35296e-05 -7.4886e-05 0
-3.38181e-06 -2.00803e-05 0
-6.75586e-06 -7.46189e-05 0
0 0 0
-3.38181e-06 -2.00803e-05 0
0 0 0
6.69495e-19 -1.99353e-05 0
-3.38181e-06 -2.00803e-05 0
-6.75586e-06 -7.46189e-05 0
6.69495e-19 -1.99353e-05 0
1.56168e-18 -7.45292e-05 0
-1.35296e-05 -7.4886e-05 0
-1.80131e-05 -0.000156248 0
-6.75586e-06 -7.46189e-05 0
-8.99735e-06 -0.000156062 0
-1.80131e-05 -0.000156248 0
-2.10883e-05 -0.000256173 0
-8.99735e-06 -0.000156062 0
-1.05356e-05 -0.000256051 0
-6.75586e-06 -7.46189e-05 0
-8.99735e-06 -0.000156062 0
1.56168e-18 -7.45292e-05 0
2.18688e-18 -0.000156 0
-8.99735e-06 -0.000156062 0
-1.05356e-05 -0.000256051 0
2.18688e-18 -0.000156 0
3.16537e-18 -0.00025601 0
-4.23019e-05 -0.000256657 0
-4.60316e-05 -0.000368259 0
-3.16736e-05 -0.000256376 0
-3.44817e-05 -0.000368099 0
-4.60316e-05 -0.000368259 0
-4.79794e-05 -0.00048662 0
-3.44817e-05 -0.000368099 0
-3.59568e-05 -0.000486547 0
-3.16736e-05 -0.000256376 0
-3.44817e-05 -0.000368099 0
-2.10883e-05 -0.000256173 0
-2.29686e-05 -0.000367984 0
-3.44817e-05 -0.000368099 0
-3.59568e-05 -0.000486547 0
-2.29686e-05 -0.000367984 0
-2.39578e-05 -0.000486493 0
-4.79794e-05 -0.00048662 0
-4.87391e-05 -0.000608027 0
-3.59568e-05 -0.000486547 0
-3.65411e-05 -0.000608005 0
-4.87391e-05 -0.000608027 0
-4.89091e-05 -0.000730257 0
-3.65411e-05 -0.000608005 0
-3.66787e-05 -0.000730252 0
-3.59568e-05 -0.000486547 0
-3.65411e-05 -0.000608005 0
-2.39578e-05 -0.000486493 0
-2.43544e-05 -0.000607989 0
-3.65411e-05 -0.000608005 0
-3.66787e-05 -0.000730252 0
-2.43544e-05 -0.000607989 0
-2.44508e-05 -0.000730248 0
-2.10883e-05 -0.000256173 0
-2.29686e-05 -0.000367984 0
-1.05356e-05 -0.000256051 0
-1.14786e-05 -0.000367914 0
-2.29686e-05 -0.000367984 0
-2.39578e-05 -0.000486493 0
-1.14786e-05 -0.000367914 0
-1.19749e-05 -0.00048646 0
-1.05356e-05 -0.000256051 0
-1.14786e-05 -0.000367914 0
3.16537e-18 -0.00025601 0
3.5855e-18 -0.000367891 0
-1.14786e-05 -0.000367914 0
-1.19749e-05 -0.00048646 0
3.5855e-18 -0.000367891 0
3.28901e-18 -0.000486449 0
-2.39578e-05 -0.000486493 0
-2.43544e-05 -0.000607989 0
-1.19749e-05 -0.00048646 0
-1.21753e-05 -0.000607978 0
-2.43544e-05 -0.000607989 0
-2.44508e-05 -0.000730248 0
-1.21753e-05 -0.000607978 0
-1.22249e-05 -0.000730245 0
-1.19749e-05 -0.00048646 0
-1.21753e-05 -0.000607978 0
3.28901e-18 -0.000486449 0
4.11257e-18 -0.000607975 0
-1.21753e-05 -0.000607978 0
-1.22249e-05 -0.000730245 0
4.11257e-18 -0.000607975 0
4.36654e-18 -0.000730244 0
0 0 0
6.69495e-19 -1.99353e-05 0
0 0 0
3.38181e-06 -2.00803e-05 0
6.69495e-19 -1.99353e-05 0
1.56168e-18 -7.45292e-05 0
3.38181e-06 -2.00803e-05 0
6.75586e-06 -7.46189e-05 0
0 0 0
3.38181e-06 -2.00803e-05 0
0 0 0
6.82843e-06 -2.05168e-05 0
3.38181e-06 -2.00803e-05 0
6.75586e-06 -7.46189e-05 0
6.82843e-06 -2.05168e-05 0
1.35296e-05 -7.4886e-05 0
1.56168e-18 -7.45292e-05 0
2.18688e-18 -0.000156 0
6.75586e-06 -7.46189e-05 0
8.99735e-06 -0.000156062 0
2.18688e-18 -0.000156 0
3.16537e-18 -0.00025601 0
8.99735e-06 -0.000156062 0
1.05356e-05 -0.000256051 0
6.75586e-06 -7.46189e-05 0
8.99735e-06 -0.000156062 0
1.35296e-05 -7.4886e-05 0
1.80131e-05 -0.000156248 0
8.99735e-06 -0.000156062 0
1.05356e-05 -0.000256051 0
1.80131e-05 -0.000156248 0
2.10883e-05 -0.000256173 0
0 0 0
6.82843e-06 -2.05168e-05 0
0 0 0
1.04159e-05 -2.12493e-05 0
6.82843e-06 -2.05168e-05 0
1.35296e-05 -7.4886e-05 0
1.04159e-05 -2.12493e-05 0
2.03296e-05 -7.53239e-05 0
0 0 0
1.04159e-05 -2.12493e-05 0
0 0 0
1.42471e-05 -2.22844e-05 0
1.04159e-05 -2.12493e-05 0
2.03296e-05 -7.53239e-05 0
1.42471e-05 -2.22844e-05 0
2.71408e-05 -7.59212e-05 0
1.35296e-05 -7.4886e-05 0
1.80131e-05 -0.000156248 0
2.03296e-05 -7.53239e-05 0
2.707e-05 -0.00015656 0
1.80131e-05 -0.000156248 0
2.10883e-05 -0.000256173 0
2.707e-05 -0.00015656 0
3.16736e-05 -0.000256376 0
2.03296e-05 -7.53239e-05 0
2.707e-05 -0.00015656 0
2.71408e-05 -7.59212e-05 0
3.62037e-05 -0.000157003 0
2.707e-05 -0.00015656 0
3.16736e-05 -0.000256376 0
3.62037e-05 -0.000157003 0
4.23019e-05 -0.000256657 0
3.16537e-18 -0.00025601 0
3.5855e-18 -0.000367891 0
1.05356e-05 -0.000256051 0
1.14786e-05 -0.000367914 0
3.5855e-18 -0.000367891 0
3.28901e-18 -0.000486449 0
1.14786e-05 -0.000367914 0
1.19749e-05 -0.00048646 0
1.05356e-05 -0.000256051 0
1.14786e-05 -0.000367914 0
2.10883e-05 -0.000256173 0
2.29686e-05 -0.000367984 0
1.14786e-05 -0.000367914 0
1.19749e-05 -0.00048646 0
2.29686e-05 -0.000367984 0
2.39578e-05 -0.000486493 0
3.28901e-18 -0.000486449 0
4.11257e-18 -0.000607975 0
1.19749e-05 -0.00048646 0
1.21753e-05 -0.000607978 0
4.11257e-18 -0.000607975 0
4.36654e-18 -0.000730244 0
1.21753e-05 -0.000607978 0
1.22249e-05 -0.000730245 0
1.19749e-05 -0.00048646 0
1.21753e-05 -0.000607978 0
2.39578e-05 -0.000486493 0
2.43544e-05 -0.000607989 0
1.21753e-05 -0.000607978 0
1.22249e-05 -0.000730245 0
2.43544e-05 -0.000607989 0
2.44508e-05 -0.000730248 0
2.10883e-05 -0.000256173 0
2.29686e-05 -0.000367984 0
3.16736e-05 -0.000256376 0
3.44817e-05 -0.000368099 0
2.29686e-05 -0.000367984 0
2.39578e-05 -0.000486493 0
3.44817e-05 -0.000368099 0
3.59568e-05 -0.000486547 0
3.16736e-05 -0.000256376 0
3.44817e-05 -0.000368099 0
4.23019e-05 -0.000256657 0
4.60316e-05 -0.000368259 0
3.44817e-05 -0.000368099 0
3.59568e-05 -0.000486547 0
4.60316e-05 -0.000368259 0
4.79794e-05 -0.00048662 0
2.39578e-05 -0.000486493 0
2.43544e-05 -0.000607989 0
3.59568e-05 -0.000486547 0
3.65411e-05 -0.000608005 0
2.43544e-05 -0.000607989 0
2.44508e-05 -0.000730248 0
3.65411e-05 -0.000608005 0
3.66787e-05 -0.000730252 0
3.59568e-05 -0.000486547 0
3.65411e-05 -0.000608005 0
4.79794e-05 -0.00048662 0
4.87391e-05 -0.000608027 0
3.65411e-05 -0.000608005 0
3.66787e-05 -0.000730252 0
4.87391e-05 -0.000608027 0
4.89091e-05 -0.000730257 0
VECTORS velocity double
0 0 0
5.28514e-08 8.26755e-08 0
0 0 0
3.86388e-08 7.88356e-08 0
5.28514e-08 8.26755e-08 0
1.00672e-07 2.81639e-07 0
3.86388e-08 7.88356e-08 0
7.54074e-08 2.79424e-07 0
0 0 0
3.86388e-08 7.88356e-08 0
0 0 0
2.53304e-08 7.61186e-08 0
3.86388e-08 7.88356e-08 0
7.54074e-08 2.79424e-07 0
2.53304e-08 7.61186e-08 0
5.01844e-08 2.778e-07 0
1.00672e-07 2.81639e-07 0
1.34277e-07 5.8238e-07 0
7.54074e-08 2.79424e-07 0
1.004e-07 5.80737e-07 0
1.34277e-07 5.8238e-07 0
1.56883e-07 9.51972e-07 0
1.004e-07 5.80737e-07 0
1.17466e-07 9.50933e-07 0
7.54074e-08 2.79424e-07 0
1.004e-07 5.80737e-07 0
5.01844e-08 2.778e-07 0
6.68089e-08 5.7958e-07 0
1.004e-07 5.80737e-07 0
1.17466e-07 9.50933e-07 0
6.68089e-08 5.7958e-07 0
7.82088e-08 9.50181e-07 0
0 0 0
2.53304e-08 7.61186e-08 0
0 0 0
1.2545e-08 7.44995e-08 0
2.53304e-08 7.61186e-08 0
5.01844e-08 2.778e-07 0
1.2545e-08 7.44995e-08 0
2.50591e-08 2.7681e-07 0
0 0 0
1.2545e-08 7.44995e-08 0
0 0 0
-7.71855e-19 7.39618e-08 0
1.2545e-08 7.44995e-08 0
2.50591e-08 2.7681e-07 0
-7.71855e-19 7.39618e-08 0
-4.88634e-18 2.76477e-07 0
5.01844e-08 2.778e-07 0
6.68089e-08 5.7958e-07 0
2.50591e-08 2.7681e-07 0
3.33704e-08 5.78891e-07 0
6.68089e-08 5.7958e-07 0
7.82088e-08 9.50181e-07 0
3.33704e-08 5.78891e-07 0
3.90727e-08 9.49726e-07 0
2.50591e-08 2.7681e-07 0
3.33704e-08 5.78891e-07 0
-4.88634e-18 2.76477e-07 0
-1.3933e-17 5.78662e-07 0
3.33704e-08 5.78891e-07 0
3.90727e-08 9.49726e-07 0
-1.3933e-17 5.78662e-07 0
-1.34854e-17 9.49574e-07 0
1.56883e-07 9.51972e-07 0
1.70705e-07 1.36585e-06 0
1.17466e-07 9.50933e-07 0
1.27873e-07 1.36526e-06 0
1.70705e-07 1.36585e-06 0
1.77922e-07 1.80478e-06 0
1.27873e-07 1.36526e-06 0
1.33339e-07 1.8045e-06 0
1.17466e-07 9.50933e-07 0
1.27873e-07 1.36526e-06 0
7.82088e-08 9.50181e-07 0
8.51776e-08 1.36483e-06 0
1.27873e-07 1.36526e-06 0
1.33339e-07 1.8045e-06 0
8.51776e-08 1.36483e-06 0
8.88427e-08 1.8043e-06 0
1.77922e-07 1.80478e-06 0
1.80736e-07 2.25498e-06 0
1.33339e-07 1.8045e-06 0
1.35503e-07 2.2549e-06 0
1.80736e-07 2.25498e-06 0
1.81365e-07 2.70824e-06 0
1.35503e-07 2.2549e-06 0
1.36012e-07 2.70822e-06 0
1.33339e-07 1.8045e-06 0
1.35503e-07 2.2549e-06 0
8.88427e-08 1.8043e-06 0
9.03119e-08 2.25484e-06 0
1.35503e-07 2.2549e-06 0
1.36012e-07 2.70822e-06 0
9.03119e-08 2.25484e-06 0
9.06688e-08 2.7082e-06 0
7.82088e-08 9.50181e-07 0
8.51776e-08 1.36483e-06 0
3.90727e-08 9.49726e-07 0
4.25677e-08 1.36457e-06 0
8.51776e-08 1.36483e-06 0
8.88427e-08 1.8043e-06 0
4.25677e-08 1.36457e-06 0
4.44065e-08 1.80418e-06 0
3.90727e-08 9.49726e-07 0
4.25677e-08 1.36457e-06 0
-1.34854e-17 9.49574e-07 0
-1.72177e-17 1.36449e-06 0
4.25677e-08 1.36457e-06 0
4.44065e-08 1.80418e-06 0
-1.72177e-17 1.36449e-06 0
-6.68159e-17 1.80414e-06 0
8.88427e-08 1.8043e-06 0
9.03119e-08 2.25484e-06 0
4.44065e-08 1.80418e-06 0
4.51489e-08 2.2548e-06 0
9.03119e-08 2.25484e-06 0
9.06688e-08 2.7082e-06 0
4.51489e-08 2.2548e-06 0
4.53325e-08 2.70819e-06 0
4.44065e-08 1.80418e-06 0
4.51489e-08 2.2548e-06 0
-6.68159e-17 1.80414e-06 0
-1.15807e-16 2.25479e-06 0
4.51489e-08 2.2548e-06 0
4.53325e-08 2.70819e-06 0
-1.15807e-16 2.25479e-06 0
-1.27232e-16 2.70819e-06 0
0 0 0
-7.71855e-19 7.39618e-08 0
0 0 0
-1.2545e-08 7.44995e-08 0
-7.71855e-19 7.39618e-08 0
-4.88634e-18 2.76477e-07 0
-1.2545e-08 7.44995e-08 0
-2.50591e-08 2.7681e-07 0
0 0 0
-1.2545e-08 7.44995e-08 0
0 0 0
-2.53304e-08 7.61186e-08 0
-1.2545e-08 7.44995e-08 0
-2.50591e-08 2.7681e-07 0
-2.53304e-08 7.61186e-08 0
-5.01844e-08 2.778e-07 0
-4.88634e-18 2.76477e-07 0
-1.3933e-17 5.78662e-07 0
-2.50591e-08 2.7681e-07 0
-3.33704e-08 5.78891e-07 0
-1.3933e-17 5.78662e-07 0
-1.34854e-17 9.49574e-07 0
-3.33704e-08 5.78891e-07 0
-3.90727e-08 9.49726e-07 0
-2.50591e-08 2.7681e-07 0
-3.33704e-08 5.78891e-07 0
-5.01844e-08 2.778e-07 0
-6.68089e-08 5.7958e-07 0
-3.33704e-08 5.78891e-07 0
-3.90727e-08 9.49726e-07 0
-6.68089e-08 5.7958e-07 0
-7.82088e-08 9.50181e-07 0
0 0 0
-2.53304e-08 7.61186e-08 0
0 0 0
-3.86388e-08 7.88356e-08 0
-2.53304e-08 7.61186e-08 0
-5.01844e-08 2.778e-07 0
-3.86388e-08 7.88356e-08 0
-7.54074e-08 2.79424e-07 0
0 0 0
-3.86388e-08 7.88356e-08 0
0 0 0
-5.28514e-08 8.26755e-08 0
-3.86388e-08 7.88356e-08 0
-7.54074e-08 2.79424e-07 0
-5.28514e-08 8.26755e-08 0
-1.00672e-07 2.81639e-07 0
-5.01844e-08 2.778e-07 0
-6.68089e-08 5.7958e-07 0
-7.54074e-08 2.79424e-07 0
-1.004e-07 5.80737e-07 0
-6.68089e-08 5.7958e-07 0
-7.82088e-08 9.50181e-07 0
-1.004e-07 5.80737e-07 0
-1.17466e-07 9.50933e-07 0
-7.54074e-08 2.79424e-07 0
-1.004e-07 5.80737e-07 0
-1.00672e-07 2.81639e-07 0
-1.34277e-07 5.8238e-07 0
-1.004e-07 5.80737e-07 0
-1.17466e-07 9.50933e-07 0
-1.34277e-07 5.8238e-07 0
-1.56883e-07 9.51972e-07 0
-1.34854e-17 9.49574e-07 0
-1.72177e-17 1.36449e-06 0
-3.90727e-08 9.49726e-07 0
-4.25677e-08 1.36457e-06 0
-1.72177e-17 1.36449e-06 0
-6.68159e-17 1.80414e-06 0
-4.25677e-08 1.36457e-06 0
-4.44065e-08 1.80418e-06 0
-3.90727e-08 9.49726e-07 0
-4.25677e-08 1.36457e-06 0
-7.82088e-08 9.50181e-07 0
-8.51776e-08 1.36483e-06 0
-4.25677e-08 1.36457e-06 0
-4.44065e-08 1.80418e-06 0
-8.51776e-08 1.36483e-06 0
-8.88427e-08 1.8043e-06 0
-6.68159e-17 1.80414e-06 0
-1.15807e-16 2.25479e-06 0
-4.44065e-08 1.80418e-06 0
-4.51489e-08 2.2548e-06 0
-1.15807e-16 2.25479e-06 0
-1.27232e-16 2.70819e-06 0
-4.51489e-08 2.2548e-06 0
-4.53325e-08 2.70819e-06 0
-4.44065e-08 1.80418e-06 0
-4.51489e-08 2.2548e-06 0
-8.88427e-08 1.8043e-06 0
-9.03119e-08 2.25484e-06 0
-4.51489e-08 2.2548e-06 0
-4.53325e-08 2.70819e-06 0
-9.03119e-08 2.25484e-06 0
-9.06688e-08 2.7082e-06 0
-7.82088e-08 9.50181e-07 0
-8.51776e-08 1.36483e-06 0
-1.17466e-07 9.50933e-07 0
-1.27873e-07 1.36526e-06 0
-8.51776e-08 1.36483e-06 0
-8.88427e-08 1.8043e-06 0
-1.27873e-07 1.36526e-06 0
-1.33339e-07 1.8045e-06 0
-1.17466e-07 9.50933e-07 0
-1.27873e-07 1.36526e-06 0
-1.56883e-07 9.51972e-07 0
-1.70705e-07 1.36585e-06 0
-1.27873e-07 1.36526e-06 0
-1.33339e-07 1.8045e-06 0
-1.70705e-07 1.36585e-06 0
-1.77922e-07 1.80478e-06 0
-8.88427e-08 1.8043e-06 0
-9.03119e-08 2.25484e-06 0
-1.33339e-07 1.8045e-06 0
-1.35503e-07 2.2549e-06 0
-9.03119e-08 2.25484e-06 0
-9.06688e-08 2.7082e-06 0
-1.35503e-07 2.2549e-06 0
-1.36012e-07 2.70822e-06 0
-1.33339e-07 1.8045e-06 0
-1.35503e-07 2.2549e-06 0
-1.77922e-07 1.80478e-06 0
-1.80736e-07 2.25498e-06 0
-1.35503e-07 2.2549e-06 0
-1.36012e-07 2.70822e-06 0
-1.80736e-07 2.25498e-06 0
-1.81365e-07 2.70824e-06 0
