# vtk DataFile Version 3.0
#This file was generated by the deal.II library on 2025/3/10 at 16:35:02
ASCII
DATASET UNSTRUCTURED_GRID

FIELD FieldData 1
TIME 1 1 double
4.70389
POINTS 256 double
0 0 0
0.625 0 0
0 0.0625 0
0.625 0.0625 0
0.625 0 0
1.25 0 0
0.625 0.0625 0
1.25 0.0625 0
0 0.0625 0
0.625 0.0625 0
0 0.125 0
0.625 0.125 0
0.625 0.0625 0
1.25 0.0625 0
0.625 0.125 0
1.25 0.125 0
1.25 0 0
1.875 0 0
1.25 0.0625 0
1.875 0.0625 0
1.875 0 0
2.5 0 0
1.875 0.0625 0
2.5 0.0625 0
1.25 0.0625 0
1.875 0.0625 0
1.25 0.125 0
1.875 0.125 0
1.875 0.0625 0
2.5 0.0625 0
1.875 0.125 0
2.5 0.125 0
0 0.125 0
0.625 0.125 0
0 0.1875 0
0.625 0.1875 0
0.625 0.125 0
1.25 0.125 0
0.625 0.1875 0
1.25 0.1875 0
0 0.1875 0
0.625 0.1875 0
0 0.25 0
0.625 0.25 0
0.625 0.1875 0
1.25 0.1875 0
0.625 0.25 0
1.25 0.25 0
1.25 0.125 0
1.875 0.125 0
1.25 0.1875 0
1.875 0.1875 0
1.875 0.125 0
2.5 0.125 0
1.875 0.1875 0
2.5 0.1875 0
1.25 0.1875 0
1.875 0.1875 0
1.25 0.25 0
1.875 0.25 0
1.875 0.1875 0
2.5 0.1875 0
1.875 0.25 0
2.5 0.25 0
2.5 0 0
3.125 0 0
2.5 0.0625 0
3.125 0.0625 0
3.125 0 0
3.75 0 0
3.125 0.0625 0
3.75 0.0625 0
2.5 0.0625 0
3.125 0.0625 0
2.5 0.125 0
3.125 0.125 0
3.125 0.0625 0
3.75 0.0625 0
3.125 0.125 0
3.75 0.125 0
3.75 0 0
4.375 0 0
3.75 0.0625 0
4.375 0.0625 0
4.375 0 0
5 0 0
4.375 0.0625 0
5 0.0625 0
3.75 0.0625 0
4.375 0.0625 0
3.75 0.125 0
4.375 0.125 0
4.375 0.0625 0
5 0.0625 0
4.375 0.125 0
5 0.125 0
2.5 0.125 0
3.125 0.125 0
2.5 0.1875 0
3.125 0.1875 0
3.125 0.125 0
3.75 0.125 0
3.125 0.1875 0
3.75 0.1875 0
2.5 0.1875 0
3.125 0.1875 0
2.5 0.25 0
3.125 0.25 0
3.125 0.1875 0
3.75 0.1875 0
3.125 0.25 0
3.75 0.25 0
3.75 0.125 0
4.375 0.125 0
3.75 0.1875 0
4.375 0.1875 0
4.375 0.125 0
5 0.125 0
4.375 0.1875 0
5 0.1875 0
3.75 0.1875 0
4.375 0.1875 0
3.75 0.25 0
4.375 0.25 0
4.375 0.1875 0
5 0.1875 0
4.375 0.25 0
5 0.25 0
0 0.25 0
0.625 0.25 0
0 0.3125 0
0.625 0.3125 0
0.625 0.25 0
1.25 0.25 0
0.625 0.3125 0
1.25 0.3125 0
0 0.3125 0
0.625 0.3125 0
0 0.375 0
0.625 0.375 0
0.625 0.3125 0
1.25 0.3125 0
0.625 0.375 0
1.25 0.375 0
1.25 0.25 0
1.875 0.25 0
1.25 0.3125 0
1.875 0.3125 0
1.875 0.25 0
2.5 0.25 0
1.875 0.3125 0
2.5 0.3125 0
1.25 0.3125 0
1.875 0.3125 0
1.25 0.375 0
1.875 0.375 0
1.875 0.3125 0
2.5 0.3125 0
1.875 0.375 0
2.5 0.375 0
0 0.375 0
0.625 0.375 0
0 0.4375 0
0.625 0.4375 0
0.625 0.375 0
1.25 0.375 0
0.625 0.4375 0
1.25 0.4375 0
0 0.4375 0
0.625 0.4375 0
0 0.5 0
0.625 0.5 0
0.625 0.4375 0
1.25 0.4375 0
0.625 0.5 0
1.25 0.5 0
1.25 0.375 0
1.875 0.375 0
1.25 0.4375 0
1.875 0.4375 0
1.875 0.375 0
2.5 0.375 0
1.875 0.4375 0
2.5 0.4375 0
1.25 0.4375 0
1.875 0.4375 0
1.25 0.5 0
1.875 0.5 0
1.875 0.4375 0
2.5 0.4375 0
1.875 0.5 0
2.5 0.5 0
2.5 0.25 0
3.125 0.25 0
2.5 0.3125 0
3.125 0.3125 0
3.125 0.25 0
3.75 0.25 0
3.125 0.3125 0
3.75 0.3125 0
2.5 0.3125 0
3.125 0.3125 0
2.5 0.375 0
3.125 0.375 0
3.125 0.3125 0
3.75 0.3125 0
3.125 0.375 0
3.75 0.375 0
3.75 0.25 0
4.375 0.25 0
3.75 0.3125 0
4.375 0.3125 0
4.375 0.25 0
5 0.25 0
4.375 0.3125 0
5 0.3125 0
3.75 0.3125 0
4.375 0.3125 0
3.75 0.375 0
4.375 0.375 0
4.375 0.3125 0
5 0.3125 0
4.375 0.375 0
5 0.375 0
2.5 0.375 0
3.125 0.375 0
2.5 0.4375 0
3.125 0.4375 0
3.125 0.375 0
3.75 0.375 0
3.125 0.4375 0
3.75 0.4375 0
2.5 0.4375 0
3.125 0.4375 0
2.5 0.5 0
3.125 0.5 0
3.125 0.4375 0
3.75 0.4375 0
3.125 0.5 0
3.75 0.5 0
3.75 0.375 0
4.375 0.375 0
3.75 0.4375 0
4.375 0.4375 0
4.375 0.375 0
5 0.375 0
4.375 0.4375 0
5 0.4375 0
3.75 0.4375 0
4.375 0.4375 0
3.75 0.5 0
4.375 0.5 0
4.375 0.4375 0
5 0.4375 0
4.375 0.5 0
5 0.5 0

CELLS 64 320
4	0	1	3	2
4	4	5	7	6
4	8	9	11	10
4	12	13	15	14
4	16	17	19	18
4	20	21	23	22
4	24	25	27	26
4	28	29	31	30
4	32	33	35	34
4	36	37	39	38
4	40	41	43	42
4	44	45	47	46
4	48	49	51	50
4	52	53	55	54
4	56	57	59	58
4	60	61	63	62
4	64	65	67	66
4	68	69	71	70
4	72	73	75	74
4	76	77	79	78
4	80	81	83	82
4	84	85	87	86
4	88	89	91	90
4	92	93	95	94
4	96	97	99	98
4	100	101	103	102
4	104	105	107	106
4	108	109	111	110
4	112	113	115	114
4	116	117	119	118
4	120	121	123	122
4	124	125	127	126
4	128	129	131	130
4	132	133	135	134
4	136	137	139	138
4	140	141	143	142
4	144	145	147	146
4	148	149	151	150
4	152	153	155	154
4	156	157	159	158
4	160	161	163	162
4	164	165	167	166
4	168	169	171	170
4	172	173	175	174
4	176	177	179	178
4	180	181	183	182
4	184	185	187	186
4	188	189	191	190
4	192	193	195	194
4	196	197	199	198
4	200	201	203	202
4	204	205	207	206
4	208	209	211	210
4	212	213	215	214
4	216	217	219	218
4	220	221	223	222
4	224	225	227	226
4	228	229	231	230
4	232	233	235	234
4	236	237	239	238
4	240	241	243	242
4	244	245	247	246
4	248	249	251	250
4	252	253	255	254

CELL_TYPES 64
 9 9 9 9 9 9 9 9 9 9 9 9 9 9 9 9 9 9 9 9 9 9 9 9 9 9 9 9 9 9 9 9 9 9 9 9 9 9 9 9 9 9 9 9 9 9 9 9 9 9 9 9 9 9 9 9 9 9 9 9 9 9 9 9
POINT_DATA 256
VECTORS displacement double
0 0 0
-1.42484e-05 -2.22864e-05 0
0 0 0
-1.04169e-05 -2.12512e-05 0
-1.42484e-05 -2.22864e-05 0
-2.71432e-05 -7.5928e-05 0
-1.04169e-05 -2.12512e-05 0
-2.03314e-05 -7.53307e-05 0
0 0 0
-1.04169e-05 -2.12512e-05 0
0 0 0
-6.82904e-06 -2.05186e-05 0
-1.04169e-05 -2.12512e-05 0
-2.03314e-05 -7.53307e-05 0
-6.82904e-06 -2.05186e-05 0
-1.35308e-05 -7.48927e-05 0
-2.71432e-05 -7.5928e-05 0
-3.6207e-05 -0.000157017 0
-2.03314e-05 -7.53307e-05 0
-2.70724e-05 -0.000156574 0
-3.6207e-05 -0.000157017 0
-4.23057e-05 -0.00025668 0
-2.70724e-05 -0.000156574 0
-3.16765e-05 -0.0002564 0
-2.03314e-05 -7.53307e-05 0
-2.70724e-05 -0.000156574 0
-1.35308e-05 -7.48927e-05 0
-1.80147e-05 -0.000156262 0
-2.70724e-05 -0.000156574 0
-3.16765e-05 -0.0002564 0
-1.80147e-05 -0.000156262 0
-2.10902e-05 -0.000256197 0
0 0 0
-6.82904e-06 -2.05186e-05 0
0 0 0
-3.38212e-06 -2.00821e-05 0
-6.82904e-06 -2.05186e-05 0
-1.35308e-05 -7.48927e-05 0
-3.38212e-06 -2.00821e-05 0
-6.75648e-06 -7.46257e-05 0
0 0 0
-3.38212e-06 -2.00821e-05 0
0 0 0
6.88229e-19 -1.99371e-05 0
-3.38212e-06 -2.00821e-05 0
-6.75648e-06 -7.46257e-05 0
6.88229e-19 -1.99371e-05 0
1.68412e-18 -7.4536e-05 0
-1.35308e-05 -7.48927e-05 0
-1.80147e-05 -0.000156262 0
-6.75648e-06 -7.46257e-05 0
-8.99817e-06 -0.000156076 0
-1.80147e-05 -0.000156262 0
-2.10902e-05 -0.000256197 0
-8.99817e-06 -0.000156076 0
-1.05365e-05 -0.000256074 0
-6.75648e-06 -7.46257e-05 0
-8.99817e-06 -0.000156076 0
1.68412e-18 -7.4536e-05 0
2.52591e-18 -0.000156015 0
-8.99817e-06 -0.000156076 0
-1.05365e-05 -0.000256074 0
2.52591e-18 -0.000156015 0
3.49576e-18 -0.000256033 0
-4.23057e-05 -0.00025668 0
-4.60358e-05 -0.000368293 0
-3.16765e-05 -0.0002564 0
-3.44849e-05 -0.000368132 0
-4.60358e-05 -0.000368293 0
-4.79838e-05 -0.000486665 0
-3.44849e-05 -0.000368132 0
-3.59601e-05 -0.000486591 0
-3.16765e-05 -0.0002564 0
-3.44849e-05 -0.000368132 0
-2.10902e-05 -0.000256197 0
-2.29707e-05 -0.000368017 0
-3.44849e-05 -0.000368132 0
-3.59601e-05 -0.000486591 0
-2.29707e-05 -0.000368017 0
-2.396e-05 -0.000486537 0
-4.79838e-05 -0.000486665 0
-4.87435e-05 -0.000608082 0
-3.59601e-05 -0.000486591 0
-3.65444e-05 -0.00060806 0
-4.87435e-05 -0.000608082 0
-4.89135e-05 -0.000730323 0
-3.65444e-05 -0.00060806 0
-3.6682e-05 -0.000730318 0
-3.59601e-05 -0.000486591 0
-3.65444e-05 -0.00060806 0
-2.396e-05 -0.000486537 0
-2.43566e-05 -0.000608044 0
-3.65444e-05 -0.00060806 0
-3.6682e-05 -0.000730318 0
-2.43566e-05 -0.000608044 0
-2.4453e-05 -0.000730314 0
-2.10902e-05 -0.000256197 0
-2.29707e-05 -0.000368017 0
-1.05365e-05 -0.000256074 0
-1.14797e-05 -0.000367948 0
-2.29707e-05 -0.000368017 0
-2.396e-05 -0.000486537 0
-1.14797e-05 -0.000367948 0
-1.1976e-05 -0.000486504 0
-1.05365e-05 -0.000256074 0
-1.14797e-05 -0.000367948 0
3.49576e-18 -0.000256033 0
4.0016e-18 -0.000367925 0
-1.14797e-05 -0.000367948 0
-1.1976e-05 -0.000486504 0
4.0016e-18 -0.000367925 0
4.92366e-18 -0.000486494 0
-2.396e-05 -0.000486537 0
-2.43566e-05 -0.000608044 0
-1.1976e-05 -0.000486504 0
-1.21764e-05 -0.000608034 0
-2.43566e-05 -0.000608044 0
-2.4453e-05 -0.000730314 0
-1.21764e-05 -0.000608034 0
-1.2226e-05 -0.000730311 0
-1.1976e-05 -0.000486504 0
-1.21764e-05 -0.000608034 0
4.92366e-18 -0.000486494 0
6.94438e-18 -0.00060803 0
-1.21764e-05 -0.000608034 0
-1.2226e-05 -0.000730311 0
6.94438e-18 -0.00060803 0
7.47003e-18 -0.00073031 0
0 0 0
6.88229e-19 -1.99371e-05 0
0 0 0
3.38212e-06 -2.00821e-05 0
6.88229e-19 -1.99371e-05 0
1.68412e-18 -7.4536e-05 0
3.38212e-06 -2.00821e-05 0
6.75648e-06 -7.46257e-05 0
0 0 0
3.38212e-06 -2.00821e-05 0
0 0 0
6.82904e-06 -2.05186e-05 0
3.38212e-06 -2.00821e-05 0
6.75648e-06 -7.46257e-05 0
6.82904e-06 -2.05186e-05 0
1.35308e-05 -7.48927e-05 0
1.68412e-18 -7.4536e-05 0
2.52591e-18 -0.000156015 0
6.75648e-06 -7.46257e-05 0
8.99817e-06 -0.000156076 0
2.52591e-18 -0.000156015 0
3.49576e-18 -0.000256033 0
8.99817e-06 -0.000156076 0
1.05365e-05 -0.000256074 0
6.75648e-06 -7.46257e-05 0
8.99817e-06 -0.000156076 0
1.35308e-05 -7.48927e-05 0
1.80147e-05 -0.000156262 0
8.99817e-06 -0.000156076 0
1.05365e-05 -0.000256074 0
1.80147e-05 -0.000156262 0
2.10902e-05 -0.000256197 0
0 0 0
6.82904e-06 -2.05186e-05 0
0 0 0
1.04169e-05 -2.12512e-05 0
6.82904e-06 -2.05186e-05 0
1.35308e-05 -7.48927e-05 0
1.04169e-05 -2.12512e-05 0
2.03314e-05 -7.53307e-05 0
0 0 0
1.04169e-05 -2.12512e-05 0
0 0 0
1.42484e-05 -2.22864e-05 0
1.04169e-05 -2.12512e-05 0
2.03314e-05 -7.53307e-05 0
1.42484e-05 -2.22864e-05 0
2.71432e-05 -7.5928e-05 0
1.35308e-05 -7.48927e-05 0
1.80147e-05 -0.000156262 0
2.03314e-05 -7.53307e-05 0
2.70724e-05 -0.000156574 0
1.80147e-05 -0.000156262 0
2.10902e-05 -0.000256197 0
2.70724e-05 -0.000156574 0
3.16765e-05 -0.0002564 0
2.03314e-05 -7.53307e-05 0
2.70724e-05 -0.000156574 0
2.71432e-05 -7.5928e-05 0
3.6207e-05 -0.000157017 0
2.70724e-05 -0.000156574 0
3.16765e-05 -0.0002564 0
3.6207e-05 -0.000157017 0
4.23057e-05 -0.00025668 0
3.49576e-18 -0.000256033 0
4.0016e-18 -0.000367925 0
1.05365e-05 -0.000256074 0
1.14797e-05 -0.000367948 0
4.0016e-18 -0.000367925 0
4.92366e-18 -0.000486494 0
1.14797e-05 -0.000367948 0
1.1976e-05 -0.000486504 0
1.05365e-05 -0.000256074 0
1.14797e-05 -0.000367948 0
2.10902e-05 -0.000256197 0
2.29707e-05 -0.000368017 0
1.14797e-05 -0.000367948 0
1.1976e-05 -0.000486504 0
2.29707e-05 -0.000368017 0
2.396e-05 -0.000486537 0
4.92366e-18 -0.000486494 0
6.94438e-18 -0.00060803 0
1.1976e-05 -0.000486504 0
1.21764e-05 -0.000608034 0
6.94438e-18 -0.00060803 0
7.47003e-18 -0.00073031 0
1.21764e-05 -0.000608034 0
1.2226e-05 -0.000730311 0
1.1976e-05 -0.000486504 0
1.21764e-05 -0.000608034 0
2.396e-05 -0.000486537 0
2.43566e-05 -0.000608044 0
1.21764e-05 -0.000608034 0
1.2226e-05 -0.000730311 0
2.43566e-05 -0.000608044 0
2.4453e-05 -0.000730314 0
2.10902e-05 -0.000256197 0
2.29707e-05 -0.000368017 0
3.16765e-05 -0.0002564 0
3.44849e-05 -0.000368132 0
2.29707e-05 -0.000368017 0
2.396e-05 -0.000486537 0
3.44849e-05 -0.000368132 0
3.59601e-05 -0.000486591 0
3.16765e-05 -0.0002564 0
3.44849e-05 -0.000368132 0
4.23057e-05 -0.00025668 0
4.60358e-05 -0.000368293 0
3.44849e-05 -0.000368132 0
3.59601e-05 -0.000486591 0
4.60358e-05 -0.000368293 0
4.79838e-05 -0.000486665 0
2.396e-05 -0.000486537 0
2.43566e-05 -0.000608044 0
3.59601e-05 -0.000486591 0
3.65444e-05 -0.00060806 0
2.43566e-05 -0.000608044 0
2.4453e-05 -0.000730314 0
3.65444e-05 -0.00060806 0
3.6682e-05 -0.000730318 0
3.59601e-05 -0.000486591 0
3.65444e-05 -0.00060806 0
4.79838e-05 -0.000486665 0
4.87435e-05 -0.000608082 0
3.65444e-05 -0.00060806 0
3.6682e-05 -0.000730318 0
4.87435e-05 -0.000608082 0
4.89135e-05 -0.000730323 0
VECTORS velocity double
0 0 0
-2.95302e-07 -4.61884e-07 0
0 0 0
-2.15893e-07 -4.40428e-07 0
-2.95302e-07 -4.61884e-07 0
-5.62562e-07 -1.57363e-06 0
-2.15893e-07 -4.40428e-07 0
-4.21383e-07 -1.56125e-06 0
0 0 0
-2.15893e-07 -4.40428e-07 0
0 0 0
-1.41534e-07 -4.25245e-07 0
-2.15893e-07 -4.40428e-07 0
-4.21383e-07 -1.56125e-06 0
-1.41534e-07 -4.25245e-07 0
-2.80435e-07 -1.55217e-06 0
-5.62562e-07 -1.57363e-06 0
-7.50426e-07 -3.25428e-06 0
-4.21383e-07 -1.56125e-06 0
-5.61103e-07 -3.24509e-06 0
-7.50426e-07 -3.25428e-06 0
-8.76841e-07 -5.3199e-06 0
-5.61103e-07 -3.24509e-06 0
-6.56536e-07 -5.31408e-06 0
-4.21383e-07 -1.56125e-06 0
-5.61103e-07 -3.24509e-06 0
-2.80435e-07 -1.55217e-06 0
-3.73373e-07 -3.23862e-06 0
-5.61103e-07 -3.24509e-06 0
-6.56536e-07 -5.31408e-06 0
-3.73373e-07 -3.23862e-06 0
-4.37121e-07 -5.30988e-06 0
0 0 0
-1.41534e-07 -4.25245e-07 0
0 0 0
-7.00957e-08 -4.16198e-07 0
-1.41534e-07 -4.25245e-07 0
-2.80435e-07 -1.55217e-06 0
-7.00957e-08 -4.16198e-07 0
-1.40033e-07 -1.54664e-06 0
0 0 0
-7.00957e-08 -4.16198e-07 0
0 0 0
-8.86175e-18 -4.13193e-07 0
-7.00957e-08 -4.16198e-07 0
-1.40033e-07 -1.54664e-06 0
-8.86175e-18 -4.13193e-07 0
-1.60156e-17 -1.54478e-06 0
-2.80435e-07 -1.55217e-06 0
-3.73373e-07 -3.23862e-06 0
-1.40033e-07 -1.54664e-06 0
-1.86496e-07 -3.23477e-06 0
-3.73373e-07 -3.23862e-06 0
-4.37121e-07 -5.30988e-06 0
-1.86496e-07 -3.23477e-06 0
-2.18383e-07 -5.30733e-06 0
-1.40033e-07 -1.54664e-06 0
-1.86496e-07 -3.23477e-06 0
-1.60156e-17 -1.54478e-06 0
-1.95889e-17 -3.23349e-06 0
-1.86496e-07 -3.23477e-06 0
-2.18383e-07 -5.30733e-06 0
-1.95889e-17 -3.23349e-06 0
-1.87971e-17 -5.30649e-06 0
-8.76841e-07 -5.3199e-06 0
-9.5416e-07 -7.63323e-06 0
-6.56536e-07 -5.31408e-06 0
-7.1475e-07 -7.6299e-06 0
-9.5416e-07 -7.63323e-06 0
-9.94542e-07 -1.00867e-05 0
-7.1475e-07 -7.6299e-06 0
-7.45331e-07 -1.00851e-05 0
-6.56536e-07 -5.31408e-06 0
-7.1475e-07 -7.6299e-06 0
-4.37121e-07 -5.30988e-06 0
-4.76102e-07 -7.62751e-06 0
-7.1475e-07 -7.6299e-06 0
-7.45331e-07 -1.00851e-05 0
-4.76102e-07 -7.62751e-06 0
-4.9661e-07 -1.0084e-05 0
-9.94542e-07 -1.00867e-05 0
-1.01029e-06 -1.26032e-05 0
-7.45331e-07 -1.00851e-05 0
-7.57444e-07 -1.26028e-05 0
-1.01029e-06 -1.26032e-05 0
-1.01382e-06 -1.51369e-05 0
-7.57444e-07 -1.26028e-05 0
-7.60297e-07 -1.51368e-05 0
-7.45331e-07 -1.00851e-05 0
-7.57444e-07 -1.26028e-05 0
-4.9661e-07 -1.0084e-05 0
-5.04832e-07 -1.26025e-05 0
-7.57444e-07 -1.26028e-05 0
-7.60297e-07 -1.51368e-05 0
-5.04832e-07 -1.26025e-05 0
-5.06831e-07 -1.51367e-05 0
-4.37121e-07 -5.30988e-06 0
-4.76102e-07 -7.62751e-06 0
-2.18383e-07 -5.30733e-06 0
-2.37933e-07 -7.62607e-06 0
-4.76102e-07 -7.62751e-06 0
-4.9661e-07 -1.0084e-05 0
-2.37933e-07 -7.62607e-06 0
-2.48221e-07 -1.00833e-05 0
-2.18383e-07 -5.30733e-06 0
-2.37933e-07 -7.62607e-06 0
-1.87971e-17 -5.30649e-06 0
-4.58123e-17 -7.62559e-06 0
-2.37933e-07 -7.62607e-06 0
-2.48221e-07 -1.00833e-05 0
-4.58123e-17 -7.62559e-06 0
-1.28987e-17 -1.00831e-05 0
-4.9661e-07 -1.0084e-05 0
-5.04832e-07 -1.26025e-05 0
-2.48221e-07 -1.00833e-05 0
-2.52377e-07 -1.26022e-05 0
-5.04832e-07 -1.26025e-05 0
-5.06831e-07 -1.51367e-05 0
-2.52377e-07 -1.26022e-05 0
-2.53405e-07 -1.51367e-05 0
-2.48221e-07 -1.00833e-05 0
-2.52377e-07 -1.26022e-05 0
-1.28987e-17 -1.00831e-05 0
2.03993e-17 -1.26022e-05 0
-2.52377e-07 -1.26022e-05 0
-2.53405e-07 -1.51367e-05 0
2.03993e-17 -1.26022e-05 0
-2.41325e-17 -1.51366e-05 0
0 0 0
-8.86175e-18 -4.13193e-07 0
0 0 0
7.00957e-08 -4.16198e-07 0
-8.86175e-18 -4.13193e-07 0
-1.60156e-17 -1.54478e-06 0
7.00957e-08 -4.16198e-07 0
1.40033e-07 -1.54664e-06 0
0 0 0
7.00957e-08 -4.16198e-07 0
0 0 0
1.41534e-07 -4.25245e-07 0
7.00957e-08 -4.16198e-07 0
1.40033e-07 -1.54664e-06 0
1.41534e-07 -4.25245e-07 0
2.80435e-07 -1.55217e-06 0
-1.60156e-17 -1.54478e-06 0
-1.95889e-17 -3.23349e-06 0
1.40033e-07 -1.54664e-06 0
1.86496e-07 -3.23477e-06 0
-1.95889e-17 -3.23349e-06 0
-1.87971e-17 -5.30649e-06 0
1.86496e-07 -3.23477e-06 0
2.18383e-07 -5.30733e-06 0
1.40033e-07 -1.54664e-06 0
1.86496e-07 -3.23477e-06 0
2.80435e-07 -1.55217e-06 0
3.73373e-07 -3.23862e-06 0
1.86496e-07 -3.23477e-06 0
2.18383e-07 -5.30733e-06 0
3.73373e-07 -3.23862e-06 0
4.37121e-07 -5.30988e-06 0
0 0 0
1.41534e-07 -4.25245e-07 0
0 0 0
2.15893e-07 -4.40428e-07 0
1.41534e-07 -4.25245e-07 0
2.80435e-07 -1.55217e-06 0
2.15893e-07 -4.40428e-07 0
4.21383e-07 -1.56125e-06 0
0 0 0
2.15893e-07 -4.40428e-07 0
0 0 0
2.95302e-07 -4.61884e-07 0
2.15893e-07 -4.40428e-07 0
4.21383e-07 -1.56125e-06 0
2.95302e-07 -4.61884e-07 0
5.62562e-07 -1.57363e-06 0
2.80435e-07 -1.55217e-06 0
3.73373e-07 -3.23862e-06 0
4.21383e-07 -1.56125e-06 0
5.61103e-07 -3.24509e-06 0
3.73373e-07 -3.23862e-06 0
4.37121e-07 -5.30988e-06 0
5.61103e-07 -3.24509e-06 0
6.56536e-07 -5.31408e-06 0
4.21383e-07 -1.56125e-06 0
5.61103e-07 -3.24509e-06 0
5.62562e-07 -1.57363e-06 0
7.50426e-07 -3.25428e-06 0
5.61103e-07 -3.24509e-06 0
6.56536e-07 -5.31408e-06 0
7.50426e-07 -3.25428e-06 0
8.76841e-07 -5.3199e-06 0
-1.87971e-17 -5.30649e-06 0
-4.58123e-17 -7.62559e-06 0
2.18383e-07 -5.30733e-06 0
2.37933e-07 -7.62607e-06 0
-4.58123e-17 -7.62559e-06 0
-1.28987e-17 -1.00831e-05 0
2.37933e-07 -7.62607e-06 0
2.48221e-07 -1.00833e-05 0
2.18383e-07 -5.30733e-06 0
2.37933e-07 -7.62607e-06 0
4.37121e-07 -5.30988e-06 0
4.76102e-07 -7.62751e-06 0
2.37933e-07 -7.62607e-06 0
2.48221e-07 -1.00833e-05 0
4.76102e-07 -7.62751e-06 0
4.9661e-07 -1.0084e-05 0
-1.28987e-17 -1.00831e-05 0
2.03993e-17 -1.26022e-05 0
2.48221e-07 -1.00833e-05 0
2.52377e-07 -1.26022e-05 0
2.03993e-17 -1.26022e-05 0
-2.41325e-17 -1.51366e-05 0
2.52377e-07 -1.26022e-05 0
2.53405e-07 -1.51367e-05 0
2.48221e-07 -1.00833e-05 0
2.52377e-07 -1.26022e-05 0
4.9661e-07 -1.0084e-05 0
5.04832e-07 -1.26025e-05 0
2.52377e-07 -1.26022e-05 0
2.53405e-07 -1.51367e-05 0
5.04832e-07 -1.26025e-05 0
5.06831e-07 -1.51367e-05 0
4.37121e-07 -5.30988e-06 0
4.76102e-07 -7.62751e-06 0
6.56536e-07 -5.31408e-06 0
7.1475e-07 -7.6299e-06 0
4.76102e-07 -7.62751e-06 0
4.9661e-07 -1.0084e-05 0
7.1475e-07 -7.6299e-06 0
7.45331e-07 -1.00851e-05 0
6.56536e-07 -5.31408e-06 0
7.1475e-07 -7.6299e-06 0
8.76841e-07 -5.3199e-06 0
9.5416e-07 -7.63323e-06 0
7.1475e-07 -7.6299e-06 0
7.45331e-07 -1.00851e-05 0
9.5416e-07 -7.63323e-06 0
9.94542e-07 -1.00867e-05 0
4.9661e-07 -1.0084e-05 0
5.04832e-07 -1.26025e-05 0
7.45331e-07 -1.00851e-05 0
7.57444e-07 -1.26028e-05 0
5.04832e-07 -1.26025e-05 0
5.06831e-07 -1.51367e-05 0
7.57444e-07 -1.26028e-05 0
7.60297e-07 -1.51368e-05 0
7.45331e-07 -1.00851e-05 0
7.57444e-07 -1.26028e-05 0
9.94542e-07 -1.00867e-05 0
1.01029e-06 -1.26032e-05 0
7.57444e-07 -1.26028e-05 0
7.60297e-07 -1.51368e-05 0
1.01029e-06 -1.26032e-05 0
1.01382e-06 -1.51369e-05 0
