# vtk DataFile Version 3.0
#This file was generated by the deal.II library on 2025/3/10 at 16:34:45
ASCII
DATASET UNSTRUCTURED_GRID

FIELD FieldData 1
TIME 1 1 double
4.45953
POINTS 256 double
0 0 0
0.625 0 0
0 0.0625 0
0.625 0.0625 0
0.625 0 0
1.25 0 0
0.625 0.0625 0
1.25 0.0625 0
0 0.0625 0
0.625 0.0625 0
0 0.125 0
0.625 0.125 0
0.625 0.0625 0
1.25 0.0625 0
0.625 0.125 0
1.25 0.125 0
1.25 0 0
1.875 0 0
1.25 0.0625 0
1.875 0.0625 0
1.875 0 0
2.5 0 0
1.875 0.0625 0
2.5 0.0625 0
1.25 0.0625 0
1.875 0.0625 0
1.25 0.125 0
1.875 0.125 0
1.875 0.0625 0
2.5 0.0625 0
1.875 0.125 0
2.5 0.125 0
0 0.125 0
0.625 0.125 0
0 0.1875 0
0.625 0.1875 0
0.625 0.125 0
1.25 0.125 0
0.625 0.1875 0
1.25 0.1875 0
0 0.1875 0
0.625 0.1875 0
0 0.25 0
0.625 0.25 0
0.625 0.1875 0
1.25 0.1875 0
0.625 0.25 0
1.25 0.25 0
1.25 0.125 0
1.875 0.125 0
1.25 0.1875 0
1.875 0.1875 0
1.875 0.125 0
2.5 0.125 0
1.875 0.1875 0
2.5 0.1875 0
1.25 0.1875 0
1.875 0.1875 0
1.25 0.25 0
1.875 0.25 0
1.875 0.1875 0
2.5 0.1875 0
1.875 0.25 0
2.5 0.25 0
2.5 0 0
3.125 0 0
2.5 0.0625 0
3.125 0.0625 0
3.125 0 0
3.75 0 0
3.125 0.0625 0
3.75 0.0625 0
2.5 0.0625 0
3.125 0.0625 0
2.5 0.125 0
3.125 0.125 0
3.125 0.0625 0
3.75 0.0625 0
3.125 0.125 0
3.75 0.125 0
3.75 0 0
4.375 0 0
3.75 0.0625 0
4.375 0.0625 0
4.375 0 0
5 0 0
4.375 0.0625 0
5 0.0625 0
3.75 0.0625 0
4.375 0.0625 0
3.75 0.125 0
4.375 0.125 0
4.375 0.0625 0
5 0.0625 0
4.375 0.125 0
5 0.125 0
2.5 0.125 0
3.125 0.125 0
2.5 0.1875 0
3.125 0.1875 0
3.125 0.125 0
3.75 0.125 0
3.125 0.1875 0
3.75 0.1875 0
2.5 0.1875 0
3.125 0.1875 0
2.5 0.25 0
3.125 0.25 0
3.125 0.1875 0
3.75 0.1875 0
3.125 0.25 0
3.75 0.25 0
3.75 0.125 0
4.375 0.125 0
3.75 0.1875 0
4.375 0.1875 0
4.375 0.125 0
5 0.125 0
4.375 0.1875 0
5 0.1875 0
3.75 0.1875 0
4.375 0.1875 0
3.75 0.25 0
4.375 0.25 0
4.375 0.1875 0
5 0.1875 0
4.375 0.25 0
5 0.25 0
0 0.25 0
0.625 0.25 0
0 0.3125 0
0.625 0.3125 0
0.625 0.25 0
1.25 0.25 0
0.625 0.3125 0
1.25 0.3125 0
0 0.3125 0
0.625 0.3125 0
0 0.375 0
0.625 0.375 0
0.625 0.3125 0
1.25 0.3125 0
0.625 0.375 0
1.25 0.375 0
1.25 0.25 0
1.875 0.25 0
1.25 0.3125 0
1.875 0.3125 0
1.875 0.25 0
2.5 0.25 0
1.875 0.3125 0
2.5 0.3125 0
1.25 0.3125 0
1.875 0.3125 0
1.25 0.375 0
1.875 0.375 0
1.875 0.3125 0
2.5 0.3125 0
1.875 0.375 0
2.5 0.375 0
0 0.375 0
0.625 0.375 0
0 0.4375 0
0.625 0.4375 0
0.625 0.375 0
1.25 0.375 0
0.625 0.4375 0
1.25 0.4375 0
0 0.4375 0
0.625 0.4375 0
0 0.5 0
0.625 0.5 0
0.625 0.4375 0
1.25 0.4375 0
0.625 0.5 0
1.25 0.5 0
1.25 0.375 0
1.875 0.375 0
1.25 0.4375 0
1.875 0.4375 0
1.875 0.375 0
2.5 0.375 0
1.875 0.4375 0
2.5 0.4375 0
1.25 0.4375 0
1.875 0.4375 0
1.25 0.5 0
1.875 0.5 0
1.875 0.4375 0
2.5 0.4375 0
1.875 0.5 0
2.5 0.5 0
2.5 0.25 0
3.125 0.25 0
2.5 0.3125 0
3.125 0.3125 0
3.125 0.25 0
3.75 0.25 0
3.125 0.3125 0
3.75 0.3125 0
2.5 0.3125 0
3.125 0.3125 0
2.5 0.375 0
3.125 0.375 0
3.125 0.3125 0
3.75 0.3125 0
3.125 0.375 0
3.75 0.375 0
3.75 0.25 0
4.375 0.25 0
3.75 0.3125 0
4.375 0.3125 0
4.375 0.25 0
5 0.25 0
4.375 0.3125 0
5 0.3125 0
3.75 0.3125 0
4.375 0.3125 0
3.75 0.375 0
4.375 0.375 0
4.375 0.3125 0
5 0.3125 0
4.375 0.375 0
5 0.375 0
2.5 0.375 0
3.125 0.375 0
2.5 0.4375 0
3.125 0.4375 0
3.125 0.375 0
3.75 0.375 0
3.125 0.4375 0
3.75 0.4375 0
2.5 0.4375 0
3.125 0.4375 0
2.5 0.5 0
3.125 0.5 0
3.125 0.4375 0
3.75 0.4375 0
3.125 0.5 0
3.75 0.5 0
3.75 0.375 0
4.375 0.375 0
3.75 0.4375 0
4.375 0.4375 0
4.375 0.375 0
5 0.375 0
4.375 0.4375 0
5 0.4375 0
3.75 0.4375 0
4.375 0.4375 0
3.75 0.5 0
4.375 0.5 0
4.375 0.4375 0
5 0.4375 0
4.375 0.5 0
5 0.5 0

CELLS 64 320
4	0	1	3	2
4	4	5	7	6
4	8	9	11	10
4	12	13	15	14
4	16	17	19	18
4	20	21	23	22
4	24	25	27	26
4	28	29	31	30
4	32	33	35	34
4	36	37	39	38
4	40	41	43	42
4	44	45	47	46
4	48	49	51	50
4	52	53	55	54
4	56	57	59	58
4	60	61	63	62
4	64	65	67	66
4	68	69	71	70
4	72	73	75	74
4	76	77	79	78
4	80	81	83	82
4	84	85	87	86
4	88	89	91	90
4	92	93	95	94
4	96	97	99	98
4	100	101	103	102
4	104	105	107	106
4	108	109	111	110
4	112	113	115	114
4	116	117	119	118
4	120	121	123	122
4	124	125	127	126
4	128	129	131	130
4	132	133	135	134
4	136	137	139	138
4	140	141	143	142
4	144	145	147	146
4	148	149	151	150
4	152	153	155	154
4	156	157	159	158
4	160	161	163	162
4	164	165	167	166
4	168	169	171	170
4	172	173	175	174
4	176	177	179	178
4	180	181	183	182
4	184	185	187	186
4	188	189	191	190
4	192	193	195	194
4	196	197	199	198
4	200	201	203	202
4	204	205	207	206
4	208	209	211	210
4	212	213	215	214
4	216	217	219	218
4	220	221	223	222
4	224	225	227	226
4	228	229	231	230
4	232	233	235	234
4	236	237	239	238
4	240	241	243	242
4	244	245	247	246
4	248	249	251	250
4	252	253	255	254

CELL_TYPES 64
 9 9 9 9 9 9 9 9 9 9 9 9 9 9 9 9 9 9 9 9 9 9 9 9 9 9 9 9 9 9 9 9 9 9 9 9 9 9 9 9 9 9 9 9 9 9 9 9 9 9 9 9 9 9 9 9 9 9 9 9 9 9 9 9
POINT_DATA 256
VECTORS displacement double
0 0 0
-1.37958e-05 -2.15785e-05 0
0 0 0
-1.0086e-05 -2.05761e-05 0
-1.37958e-05 -2.15785e-05 0
-2.6281e-05 -7.35161e-05 0
-1.0086e-05 -2.05761e-05 0
-1.96856e-05 -7.29378e-05 0
0 0 0
-1.0086e-05 -2.05761e-05 0
0 0 0
-6.61211e-06 -1.98668e-05 0
-1.0086e-05 -2.05761e-05 0
-1.96856e-05 -7.29378e-05 0
-6.61211e-06 -1.98668e-05 0
-1.3101e-05 -7.25137e-05 0
-2.6281e-05 -7.35161e-05 0
-3.50568e-05 -0.00015203 0
-1.96856e-05 -7.29378e-05 0
-2.62125e-05 -0.000151601 0
-3.50568e-05 -0.00015203 0
-4.09619e-05 -0.000248526 0
-2.62125e-05 -0.000151601 0
-3.06703e-05 -0.000248255 0
-1.96856e-05 -7.29378e-05 0
-2.62125e-05 -0.000151601 0
-1.3101e-05 -7.25137e-05 0
-1.74424e-05 -0.000151298 0
-2.62125e-05 -0.000151601 0
-3.06703e-05 -0.000248255 0
-1.74424e-05 -0.000151298 0
-2.04202e-05 -0.000248058 0
0 0 0
-6.61211e-06 -1.98668e-05 0
0 0 0
-3.27468e-06 -1.94442e-05 0
-6.61211e-06 -1.98668e-05 0
-1.3101e-05 -7.25137e-05 0
-3.27468e-06 -1.94442e-05 0
-6.54185e-06 -7.22551e-05 0
0 0 0
-3.27468e-06 -1.94442e-05 0
0 0 0
7.7045e-19 -1.93038e-05 0
-3.27468e-06 -1.94442e-05 0
-6.54185e-06 -7.22551e-05 0
7.7045e-19 -1.93038e-05 0
1.85733e-18 -7.21683e-05 0
-1.3101e-05 -7.25137e-05 0
-1.74424e-05 -0.000151298 0
-6.54185e-06 -7.22551e-05 0
-8.71233e-06 -0.000151118 0
-1.74424e-05 -0.000151298 0
-2.04202e-05 -0.000248058 0
-8.71233e-06 -0.000151118 0
-1.02018e-05 -0.00024794 0
-6.54185e-06 -7.22551e-05 0
-8.71233e-06 -0.000151118 0
1.85733e-18 -7.21683e-05 0
2.85514e-18 -0.000151059 0
-8.71233e-06 -0.000151118 0
-1.02018e-05 -0.00024794 0
2.85514e-18 -0.000151059 0
3.95038e-18 -0.0002479 0
-4.09619e-05 -0.000248526 0
-4.45734e-05 -0.000356594 0
-3.06703e-05 -0.000248255 0
-3.33894e-05 -0.000356438 0
-4.45734e-05 -0.000356594 0
-4.64595e-05 -0.000471205 0
-3.33894e-05 -0.000356438 0
-3.48178e-05 -0.000471134 0
-3.06703e-05 -0.000248255 0
-3.33894e-05 -0.000356438 0
-2.04202e-05 -0.000248058 0
-2.2241e-05 -0.000356327 0
-3.33894e-05 -0.000356438 0
-3.48178e-05 -0.000471134 0
-2.2241e-05 -0.000356327 0
-2.31989e-05 -0.000471082 0
-4.64595e-05 -0.000471205 0
-4.71951e-05 -0.000588766 0
-3.48178e-05 -0.000471134 0
-3.53835e-05 -0.000588744 0
-4.71951e-05 -0.000588766 0
-4.73597e-05 -0.000707123 0
-3.53835e-05 -0.000588744 0
-3.55168e-05 -0.000707119 0
-3.48178e-05 -0.000471134 0
-3.53835e-05 -0.000588744 0
-2.31989e-05 -0.000471082 0
-2.35829e-05 -0.000588729 0
-3.53835e-05 -0.000588744 0
-3.55168e-05 -0.000707119 0
-2.35829e-05 -0.000588729 0
-2.36762e-05 -0.000707115 0
-2.04202e-05 -0.000248058 0
-2.2241e-05 -0.000356327 0
-1.02018e-05 -0.00024794 0
-1.1115e-05 -0.00035626 0
-2.2241e-05 -0.000356327 0
-2.31989e-05 -0.000471082 0
-1.1115e-05 -0.00035626 0
-1.15955e-05 -0.00047105 0
-1.02018e-05 -0.00024794 0
-1.1115e-05 -0.00035626 0
3.95038e-18 -0.0002479 0
4.98873e-18 -0.000356237 0
-1.1115e-05 -0.00035626 0
-1.15955e-05 -0.00047105 0
4.98873e-18 -0.000356237 0
5.771e-18 -0.00047104 0
-2.31989e-05 -0.000471082 0
-2.35829e-05 -0.000588729 0
-1.15955e-05 -0.00047105 0
-1.17896e-05 -0.000588719 0
-2.35829e-05 -0.000588729 0
-2.36762e-05 -0.000707115 0
-1.17896e-05 -0.000588719 0
-1.18376e-05 -0.000707112 0
-1.15955e-05 -0.00047105 0
-1.17896e-05 -0.000588719 0
5.771e-18 -0.00047104 0
5.58599e-18 -0.000588715 0
-1.17896e-05 -0.000588719 0
-1.18376e-05 -0.000707112 0
5.58599e-18 -0.000588715 0
4.99884e-18 -0.000707111 0
0 0 0
7.7045e-19 -1.93038e-05 0
0 0 0
3.27468e-06 -1.94442e-05 0
7.7045e-19 -1.93038e-05 0
1.85733e-18 -7.21683e-05 0
3.27468e-06 -1.94442e-05 0
6.54185e-06 -7.22551e-05 0
0 0 0
3.27468e-06 -1.94442e-05 0
0 0 0
6.61211e-06 -1.98668e-05 0
3.27468e-06 -1.94442e-05 0
6.54185e-06 -7.22551e-05 0
6.61211e-06 -1.98668e-05 0
1.3101e-05 -7.25137e-05 0
1.85733e-18 -7.21683e-05 0
2.85514e-18 -0.000151059 0
6.54185e-06 -7.22551e-05 0
8.71233e-06 -0.000151118 0
2.85514e-18 -0.000151059 0
3.95038e-18 -0.0002479 0
8.71233e-06 -0.000151118 0
1.02018e-05 -0.00024794 0
6.54185e-06 -7.22551e-05 0
8.71233e-06 -0.000151118 0
1.3101e-05 -7.25137e-05 0
1.74424e-05 -0.000151298 0
8.71233e-06 -0.000151118 0
1.02018e-05 -0.00024794 0
1.74424e-05 -0.000151298 0
2.04202e-05 -0.000248058 0
0 0 0
6.61211e-06 -1.98668e-05 0
0 0 0
1.0086e-05 -2.05761e-05 0
6.61211e-06 -1.98668e-05 0
1.3101e-05 -7.25137e-05 0
1.0086e-05 -2.05761e-05 0
1.96856e-05 -7.29378e-05 0
0 0 0
1.0086e-05 -2.05761e-05 0
0 0 0
1.37958e-05 -2.15785e-05 0
1.0086e-05 -2.05761e-05 0
1.96856e-05 -7.29378e-05 0
1.37958e-05 -2.15785e-05 0
2.6281e-05 -7.35161e-05 0
1.3101e-05 -7.25137e-05 0
1.74424e-05 -0.000151298 0
1.96856e-05 -7.29378e-05 0
2.62125e-05 -0.000151601 0
1.74424e-05 -0.000151298 0
2.04202e-05 -0.000248058 0
2.62125e-05 -0.000151601 0
3.06703e-05 -0.000248255 0
1.96856e-05 -7.29378e-05 0
2.62125e-05 -0.000151601 0
2.6281e-05 -7.35161e-05 0
3.50568e-05 -0.00015203 0
2.62125e-05 -0.000151601 0
3.06703e-05 -0.000248255 0
3.50568e-05 -0.00015203 0
4.09619e-05 -0.000248526 0
3.95038e-18 -0.0002479 0
4.98873e-18 -0.000356237 0
1.02018e-05 -0.00024794 0
1.1115e-05 -0.00035626 0
4.98873e-18 -0.000356237 0
5.771e-18 -0.00047104 0
1.1115e-05 -0.00035626 0
1.15955e-05 -0.00047105 0
1.02018e-05 -0.00024794 0
1.1115e-05 -0.00035626 0
2.04202e-05 -0.000248058 0
2.2241e-05 -0.000356327 0
1.1115e-05 -0.00035626 0
1.15955e-05 -0.00047105 0
2.2241e-05 -0.000356327 0
2.31989e-05 -0.000471082 0
5.771e-18 -0.00047104 0
5.58599e-18 -0.000588715 0
1.15955e-05 -0.00047105 0
1.17896e-05 -0.000588719 0
5.58599e-18 -0.000588715 0
4.99884e-18 -0.000707111 0
1.17896e-05 -0.000588719 0
1.18376e-05 -0.000707112 0
1.15955e-05 -0.00047105 0
1.17896e-05 -0.000588719 0
2.31989e-05 -0.000471082 0
2.35829e-05 -0.000588729 0
1.17896e-05 -0.000588719 0
1.18376e-05 -0.000707112 0
2.35829e-05 -0.000588729 0
2.36762e-05 -0.000707115 0
2.04202e-05 -0.000248058 0
2.2241e-05 -0.000356327 0
3.06703e-05 -0.000248255 0
3.33894e-05 -0.000356438 0
2.2241e-05 -0.000356327 0
2.31989e-05 -0.000471082 0
3.33894e-05 -0.000356438 0
3.48178e-05 -0.000471134 0
3.06703e-05 -0.000248255 0
3.33894e-05 -0.000356438 0
4.09619e-05 -0.000248526 0
4.45734e-05 -0.000356594 0
3.33894e-05 -0.000356438 0
3.48178e-05 -0.000471134 0
4.45734e-05 -0.000356594 0
4.64595e-05 -0.000471205 0
2.31989e-05 -0.000471082 0
2.35829e-05 -0.000588729 0
3.48178e-05 -0.000471134 0
3.53835e-05 -0.000588744 0
2.35829e-05 -0.000588729 0
2.36762e-05 -0.000707115 0
3.53835e-05 -0.000588744 0
3.55168e-05 -0.000707119 0
3.48178e-05 -0.000471134 0
3.53835e-05 -0.000588744 0
4.64595e-05 -0.000471205 0
4.71951e-05 -0.000588766 0
3.53835e-05 -0.000588744 0
3.55168e-05 -0.000707119 0
4.71951e-05 -0.000588766 0
4.73597e-05 -0.000707123 0
VECTORS velocity double
0 0 0
-3.73299e-06 -5.8389e-06 0
0 0 0
-2.72916e-06 -5.56767e-06 0
-3.73299e-06 -5.8389e-06 0
-7.11137e-06 -1.98927e-05 0
-2.72916e-06 -5.56767e-06 0
-5.32672e-06 -1.97362e-05 0
0 0 0
-2.72916e-06 -5.56767e-06 0
0 0 0
-1.78917e-06 -5.37574e-06 0
-2.72916e-06 -5.56767e-06 0
-5.32672e-06 -1.97362e-05 0
-1.78917e-06 -5.37574e-06 0
-3.54499e-06 -1.96214e-05 0
-7.11137e-06 -1.98927e-05 0
-9.48603e-06 -4.11377e-05 0
-5.32672e-06 -1.97362e-05 0
-7.09283e-06 -4.10216e-05 0
-9.48603e-06 -4.11377e-05 0
-1.10839e-05 -6.72487e-05 0
-7.09283e-06 -4.10216e-05 0
-8.29908e-06 -6.71752e-05 0
-5.32672e-06 -1.97362e-05 0
-7.09283e-06 -4.10216e-05 0
-3.54499e-06 -1.96214e-05 0
-4.71975e-06 -4.09398e-05 0
-7.09283e-06 -4.10216e-05 0
-8.29908e-06 -6.71752e-05 0
-4.71975e-06 -4.09398e-05 0
-5.52552e-06 -6.7122e-05 0
0 0 0
-1.78917e-06 -5.37574e-06 0
0 0 0
-8.86094e-07 -5.26138e-06 0
-1.78917e-06 -5.37574e-06 0
-3.54499e-06 -1.96214e-05 0
-8.86094e-07 -5.26138e-06 0
-1.77016e-06 -1.95515e-05 0
0 0 0
-8.86094e-07 -5.26138e-06 0
0 0 0
6.75778e-18 -5.22339e-06 0
-8.86094e-07 -5.26138e-06 0
-1.77016e-06 -1.95515e-05 0
6.75778e-18 -5.22339e-06 0
1.58186e-17 -1.9528e-05 0
-3.54499e-06 -1.96214e-05 0
-4.71975e-06 -4.09398e-05 0
-1.77016e-06 -1.95515e-05 0
-2.35747e-06 -4.08911e-05 0
-4.71975e-06 -4.09398e-05 0
-5.52552e-06 -6.7122e-05 0
-2.35747e-06 -4.08911e-05 0
-2.76052e-06 -6.70899e-05 0
-1.77016e-06 -1.95515e-05 0
-2.35747e-06 -4.08911e-05 0
1.58186e-17 -1.9528e-05 0
2.02569e-17 -4.08749e-05 0
-2.35747e-06 -4.08911e-05 0
-2.76052e-06 -6.70899e-05 0
2.02569e-17 -4.08749e-05 0
3.77294e-17 -6.70792e-05 0
-1.10839e-05 -6.72487e-05 0
-1.20611e-05 -9.64907e-05 0
-8.29908e-06 -6.71752e-05 0
-9.03486e-06 -9.64486e-05 0
-1.20611e-05 -9.64907e-05 0
-1.25715e-05 -0.000127504 0
-9.03486e-06 -9.64486e-05 0
-9.42136e-06 -0.000127484 0
-8.29908e-06 -6.71752e-05 0
-9.03486e-06 -9.64486e-05 0
-5.52552e-06 -6.7122e-05 0
-6.01821e-06 -9.64184e-05 0
-9.03486e-06 -9.64486e-05 0
-9.42136e-06 -0.000127484 0
-6.01821e-06 -9.64184e-05 0
-6.2774e-06 -0.00012747 0
-1.25715e-05 -0.000127504 0
-1.27706e-05 -0.000159314 0
-9.42136e-06 -0.000127484 0
-9.57446e-06 -0.000159308 0
-1.27706e-05 -0.000159314 0
-1.28151e-05 -0.000191341 0
-9.57446e-06 -0.000159308 0
-9.61051e-06 -0.00019134 0
-9.42136e-06 -0.000127484 0
-9.57446e-06 -0.000159308 0
-6.2774e-06 -0.00012747 0
-6.38132e-06 -0.000159304 0
-9.57446e-06 -0.000159308 0
-9.61051e-06 -0.00019134 0
-6.38132e-06 -0.000159304 0
-6.40657e-06 -0.000191338 0
-5.52552e-06 -6.7122e-05 0
-6.01821e-06 -9.64184e-05 0
-2.76052e-06 -6.70899e-05 0
-3.00761e-06 -9.64003e-05 0
-6.01821e-06 -9.64184e-05 0
-6.2774e-06 -0.00012747 0
-3.00761e-06 -9.64003e-05 0
-3.13765e-06 -0.000127462 0
-2.76052e-06 -6.70899e-05 0
-3.00761e-06 -9.64003e-05 0
3.77294e-17 -6.70792e-05 0
4.66844e-17 -9.63942e-05 0
-3.00761e-06 -9.64003e-05 0
-3.13765e-06 -0.000127462 0
4.66844e-17 -9.63942e-05 0
6.30659e-17 -0.000127459 0
-6.2774e-06 -0.00012747 0
-6.38132e-06 -0.000159304 0
-3.13765e-06 -0.000127462 0
-3.19016e-06 -0.000159302 0
-6.38132e-06 -0.000159304 0
-6.40657e-06 -0.000191338 0
-3.19016e-06 -0.000159302 0
-3.20315e-06 -0.000191338 0
-3.13765e-06 -0.000127462 0
-3.19016e-06 -0.000159302 0
6.30659e-17 -0.000127459 0
3.61709e-17 -0.000159301 0
-3.19016e-06 -0.000159302 0
-3.20315e-06 -0.000191338 0
3.61709e-17 -0.000159301 0
-1.36955e-17 -0.000191338 0
0 0 0
6.75778e-18 -5.22339e-06 0
0 0 0
8.86094e-07 -5.26138e-06 0
6.75778e-18 -5.22339e-06 0
1.58186e-17 -1.9528e-05 0
8.86094e-07 -5.26138e-06 0
1.77016e-06 -1.95515e-05 0
0 0 0
8.86094e-07 -5.26138e-06 0
0 0 0
1.78917e-06 -5.37574e-06 0
8.86094e-07 -5.26138e-06 0
1.77016e-06 -1.95515e-05 0
1.78917e-06 -5.37574e-06 0
3.54499e-06 -1.96214e-05 0
1.58186e-17 -1.9528e-05 0
2.02569e-17 -4.08749e-05 0
1.77016e-06 -1.95515e-05 0
2.35747e-06 -4.08911e-05 0
2.02569e-17 -4.08749e-05 0
3.77294e-17 -6.70792e-05 0
2.35747e-06 -4.08911e-05 0
2.76052e-06 -6.70899e-05 0
1.77016e-06 -1.95515e-05 0
2.35747e-06 -4.08911e-05 0
3.54499e-06 -1.96214e-05 0
4.71975e-06 -4.09398e-05 0
2.35747e-06 -4.08911e-05 0
2.76052e-06 -6.70899e-05 0
4.71975e-06 -4.09398e-05 0
5.52552e-06 -6.7122e-05 0
0 0 0
1.78917e-06 -5.37574e-06 0
0 0 0
2.72916e-06 -5.56767e-06 0
1.78917e-06 -5.37574e-06 0
3.54499e-06 -1.96214e-05 0
2.72916e-06 -5.56767e-06 0
5.32672e-06 -1.97362e-05 0
0 0 0
2.72916e-06 -5.56767e-06 0
0 0 0
3.73299e-06 -5.8389e-06 0
2.72916e-06 -5.56767e-06 0
5.32672e-06 -1.97362e-05 0
3.73299e-06 -5.8389e-06 0
7.11137e-06 -1.98927e-05 0
3.54499e-06 -1.96214e-05 0
4.71975e-06 -4.09398e-05 0
5.32672e-06 -1.97362e-05 0
7.09283e-06 -4.10216e-05 0
4.71975e-06 -4.09398e-05 0
5.52552e-06 -6.7122e-05 0
7.09283e-06 -4.10216e-05 0
8.29908e-06 -6.71752e-05 0
5.32672e-06 -1.97362e-05 0
7.09283e-06 -4.10216e-05 0
7.11137e-06 -1.98927e-05 0
9.48603e-06 -4.11377e-05 0
7.09283e-06 -4.10216e-05 0
8.29908e-06 -6.71752e-05 0
9.48603e-06 -4.11377e-05 0
1.10839e-05 -6.72487e-05 0
3.77294e-17 -6.70792e-05 0
4.66844e-17 -9.63942e-05 0
2.76052e-06 -6.70899e-05 0
3.00761e-06 -9.64003e-05 0
4.66844e-17 -9.63942e-05 0
6.30659e-17 -0.000127459 0
3.00761e-06 -9.64003e-05 0
3.13765e-06 -0.000127462 0
2.76052e-06 -6.70899e-05 0
3.00761e-06 -9.64003e-05 0
5.52552e-06 -6.7122e-05 0
6.01821e-06 -9.64184e-05 0
3.00761e-06 -9.64003e-05 0
3.13765e-06 -0.000127462 0
6.01821e-06 -9.64184e-05 0
6.2774e-06 -0.00012747 0
6.30659e-17 -0.000127459 0
3.61709e-17 -0.000159301 0
3.13765e-06 -0.000127462 0
3.19016e-06 -0.000159302 0
3.61709e-17 -0.000159301 0
-1.36955e-17 -0.000191338 0
3.19016e-06 -0.000159302 0
3.20315e-06 -0.000191338 0
3.13765e-06 -0.000127462 0
3.19016e-06 -0.000159302 0
6.2774e-06 -0.00012747 0
6.38132e-06 -0.000159304 0
3.19016e-06 -0.000159302 0
3.20315e-06 -0.000191338 0
6.38132e-06 -0.000159304 0
6.40657e-06 -0.000191338 0
5.52552e-06 -6.7122e-05 0
6.01821e-06 -9.64184e-05 0
8.29908e-06 -6.71752e-05 0
9.03486e-06 -9.64486e-05 0
6.01821e-06 -9.64184e-05 0
6.2774e-06 -0.00012747 0
9.03486e-06 -9.64486e-05 0
9.42136e-06 -0.000127484 0
8.29908e-06 -6.71752e-05 0
9.03486e-06 -9.64486e-05 0
1.10839e-05 -6.72487e-05 0
1.20611e-05 -9.64907e-05 0
9.03486e-06 -9.64486e-05 0
9.42136e-06 -0.000127484 0
1.20611e-05 -9.64907e-05 0
1.25715e-05 -0.000127504 0
6.2774e-06 -0.00012747 0
6.38132e-06 -0.000159304 0
9.42136e-06 -0.000127484 0
9.57446e-06 -0.000159308 0
6.38132e-06 -0.000159304 0
6.40657e-06 -0.000191338 0
9.57446e-06 -0.000159308 0
9.61051e-06 -0.00019134 0
9.42136e-06 -0.000127484 0
9.57446e-06 -0.000159308 0
1.25715e-05 -0.000127504 0
1.27706e-05 -0.000159314 0
9.57446e-06 -0.000159308 0
9.61051e-06 -0.00019134 0
1.27706e-05 -0.000159314 0
1.28151e-05 -0.000191341 0
