# vtk DataFile Version 3.0
#This file was generated by the deal.II library on 2025/3/10 at 16:36:16
ASCII
DATASET UNSTRUCTURED_GRID

FIELD FieldData 1
TIME 1 1 double
5.82794
POINTS 256 double
0 0 0
0.625 0 0
0 0.0625 0
0.625 0.0625 0
0.625 0 0
1.25 0 0
0.625 0.0625 0
1.25 0.0625 0
0 0.0625 0
0.625 0.0625 0
0 0.125 0
0.625 0.125 0
0.625 0.0625 0
1.25 0.0625 0
0.625 0.125 0
1.25 0.125 0
1.25 0 0
1.875 0 0
1.25 0.0625 0
1.875 0.0625 0
1.875 0 0
2.5 0 0
1.875 0.0625 0
2.5 0.0625 0
1.25 0.0625 0
1.875 0.0625 0
1.25 0.125 0
1.875 0.125 0
1.875 0.0625 0
2.5 0.0625 0
1.875 0.125 0
2.5 0.125 0
0 0.125 0
0.625 0.125 0
0 0.1875 0
0.625 0.1875 0
0.625 0.125 0
1.25 0.125 0
0.625 0.1875 0
1.25 0.1875 0
0 0.1875 0
0.625 0.1875 0
0 0.25 0
0.625 0.25 0
0.625 0.1875 0
1.25 0.1875 0
0.625 0.25 0
1.25 0.25 0
1.25 0.125 0
1.875 0.125 0
1.25 0.1875 0
1.875 0.1875 0
1.875 0.125 0
2.5 0.125 0
1.875 0.1875 0
2.5 0.1875 0
1.25 0.1875 0
1.875 0.1875 0
1.25 0.25 0
1.875 0.25 0
1.875 0.1875 0
2.5 0.1875 0
1.875 0.25 0
2.5 0.25 0
2.5 0 0
3.125 0 0
2.5 0.0625 0
3.125 0.0625 0
3.125 0 0
3.75 0 0
3.125 0.0625 0
3.75 0.0625 0
2.5 0.0625 0
3.125 0.0625 0
2.5 0.125 0
3.125 0.125 0
3.125 0.0625 0
3.75 0.0625 0
3.125 0.125 0
3.75 0.125 0
3.75 0 0
4.375 0 0
3.75 0.0625 0
4.375 0.0625 0
4.375 0 0
5 0 0
4.375 0.0625 0
5 0.0625 0
3.75 0.0625 0
4.375 0.0625 0
3.75 0.125 0
4.375 0.125 0
4.375 0.0625 0
5 0.0625 0
4.375 0.125 0
5 0.125 0
2.5 0.125 0
3.125 0.125 0
2.5 0.1875 0
3.125 0.1875 0
3.125 0.125 0
3.75 0.125 0
3.125 0.1875 0
3.75 0.1875 0
2.5 0.1875 0
3.125 0.1875 0
2.5 0.25 0
3.125 0.25 0
3.125 0.1875 0
3.75 0.1875 0
3.125 0.25 0
3.75 0.25 0
3.75 0.125 0
4.375 0.125 0
3.75 0.1875 0
4.375 0.1875 0
4.375 0.125 0
5 0.125 0
4.375 0.1875 0
5 0.1875 0
3.75 0.1875 0
4.375 0.1875 0
3.75 0.25 0
4.375 0.25 0
4.375 0.1875 0
5 0.1875 0
4.375 0.25 0
5 0.25 0
0 0.25 0
0.625 0.25 0
0 0.3125 0
0.625 0.3125 0
0.625 0.25 0
1.25 0.25 0
0.625 0.3125 0
1.25 0.3125 0
0 0.3125 0
0.625 0.3125 0
0 0.375 0
0.625 0.375 0
0.625 0.3125 0
1.25 0.3125 0
0.625 0.375 0
1.25 0.375 0
1.25 0.25 0
1.875 0.25 0
1.25 0.3125 0
1.875 0.3125 0
1.875 0.25 0
2.5 0.25 0
1.875 0.3125 0
2.5 0.3125 0
1.25 0.3125 0
1.875 0.3125 0
1.25 0.375 0
1.875 0.375 0
1.875 0.3125 0
2.5 0.3125 0
1.875 0.375 0
2.5 0.375 0
0 0.375 0
0.625 0.375 0
0 0.4375 0
0.625 0.4375 0
0.625 0.375 0
1.25 0.375 0
0.625 0.4375 0
1.25 0.4375 0
0 0.4375 0
0.625 0.4375 0
0 0.5 0
0.625 0.5 0
0.625 0.4375 0
1.25 0.4375 0
0.625 0.5 0
1.25 0.5 0
1.25 0.375 0
1.875 0.375 0
1.25 0.4375 0
1.875 0.4375 0
1.875 0.375 0
2.5 0.375 0
1.875 0.4375 0
2.5 0.4375 0
1.25 0.4375 0
1.875 0.4375 0
1.25 0.5 0
1.875 0.5 0
1.875 0.4375 0
2.5 0.4375 0
1.875 0.5 0
2.5 0.5 0
2.5 0.25 0
3.125 0.25 0
2.5 0.3125 0
3.125 0.3125 0
3.125 0.25 0
3.75 0.25 0
3.125 0.3125 0
3.75 0.3125 0
2.5 0.3125 0
3.125 0.3125 0
2.5 0.375 0
3.125 0.375 0
3.125 0.3125 0
3.75 0.3125 0
3.125 0.375 0
3.75 0.375 0
3.75 0.25 0
4.375 0.25 0
3.75 0.3125 0
4.375 0.3125 0
4.375 0.25 0
5 0.25 0
4.375 0.3125 0
5 0.3125 0
3.75 0.3125 0
4.375 0.3125 0
3.75 0.375 0
4.375 0.375 0
4.375 0.3125 0
5 0.3125 0
4.375 0.375 0
5 0.375 0
2.5 0.375 0
3.125 0.375 0
2.5 0.4375 0
3.125 0.4375 0
3.125 0.375 0
3.75 0.375 0
3.125 0.4375 0
3.75 0.4375 0
2.5 0.4375 0
3.125 0.4375 0
2.5 0.5 0
3.125 0.5 0
3.125 0.4375 0
3.75 0.4375 0
3.125 0.5 0
3.75 0.5 0
3.75 0.375 0
4.375 0.375 0
3.75 0.4375 0
4.375 0.4375 0
4.375 0.375 0
5 0.375 0
4.375 0.4375 0
5 0.4375 0
3.75 0.4375 0
4.375 0.4375 0
3.75 0.5 0
4.375 0.5 0
4.375 0.4375 0
5 0.4375 0
4.375 0.5 0
5 0.5 0

CELLS 64 320
4	0	1	3	2
4	4	5	7	6
4	8	9	11	10
4	12	13	15	14
4	16	17	19	18
4	20	21	23	22
4	24	25	27	26
4	28	29	31	30
4	32	33	35	34
4	36	37	39	38
4	40	41	43	42
4	44	45	47	46
4	48	49	51	50
4	52	53	55	54
4	56	57	59	58
4	60	61	63	62
4	64	65	67	66
4	68	69	71	70
4	72	73	75	74
4	76	77	79	78
4	80	81	83	82
4	84	85	87	86
4	88	89	91	90
4	92	93	95	94
4	96	97	99	98
4	100	101	103	102
4	104	105	107	106
4	108	109	111	110
4	112	113	115	114
4	116	117	119	118
4	120	121	123	122
4	124	125	127	126
4	128	129	131	130
4	132	133	135	134
4	136	137	139	138
4	140	141	143	142
4	144	145	147	146
4	148	149	151	150
4	152	153	155	154
4	156	157	159	158
4	160	161	163	162
4	164	165	167	166
4	168	169	171	170
4	172	173	175	174
4	176	177	179	178
4	180	181	183	182
4	184	185	187	186
4	188	189	191	190
4	192	193	195	194
4	196	197	199	198
4	200	201	203	202
4	204	205	207	206
4	208	209	211	210
4	212	213	215	214
4	216	217	219	218
4	220	221	223	222
4	224	225	227	226
4	228	229	231	230
4	232	233	235	234
4	236	237	239	238
4	240	241	243	242
4	244	245	247	246
4	248	249	251	250
4	252	253	255	254

CELL_TYPES 64
 9 9 9 9 9 9 9 9 9 9 9 9 9 9 9 9 9 9 9 9 9 9 9 9 9 9 9 9 9 9 9 9 9 9 9 9 9 9 9 9 9 9 9 9 9 9 9 9 9 9 9 9 9 9 9 9 9 9 9 9 9 9 9 9
POINT_DATA 256
VECTORS displacement double
0 0 0
-6.26517e-06 -9.79957e-06 0
0 0 0
-4.58041e-06 -9.34435e-06 0
-6.26517e-06 -9.79957e-06 0
-1.19352e-05 -3.33863e-05 0
-4.58041e-06 -9.34435e-06 0
-8.93995e-06 -3.31237e-05 0
0 0 0
-4.58041e-06 -9.34435e-06 0
0 0 0
-3.0028e-06 -9.02224e-06 0
-4.58041e-06 -9.34435e-06 0
-8.93995e-06 -3.31237e-05 0
-3.0028e-06 -9.02224e-06 0
-5.94964e-06 -3.29311e-05 0
-1.19352e-05 -3.33863e-05 0
-1.59206e-05 -6.90422e-05 0
-8.93995e-06 -3.31237e-05 0
-1.1904e-05 -6.88474e-05 0
-1.59206e-05 -6.90422e-05 0
-1.86023e-05 -0.000112865 0
-1.1904e-05 -6.88474e-05 0
-1.39285e-05 -0.000112742 0
-8.93995e-06 -3.31237e-05 0
-1.1904e-05 -6.88474e-05 0
-5.94964e-06 -3.29311e-05 0
-7.92126e-06 -6.87101e-05 0
-1.1904e-05 -6.88474e-05 0
-1.39285e-05 -0.000112742 0
-7.92126e-06 -6.87101e-05 0
-9.27359e-06 -0.000112652 0
0 0 0
-3.0028e-06 -9.02224e-06 0
0 0 0
-1.48715e-06 -8.8303e-06 0
-3.0028e-06 -9.02224e-06 0
-5.94964e-06 -3.29311e-05 0
-1.48715e-06 -8.8303e-06 0
-2.97089e-06 -3.28137e-05 0
0 0 0
-1.48715e-06 -8.8303e-06 0
0 0 0
3.99136e-19 -8.76655e-06 0
-1.48715e-06 -8.8303e-06 0
-2.97089e-06 -3.28137e-05 0
3.99136e-19 -8.76655e-06 0
8.3063e-19 -3.27742e-05 0
-5.94964e-06 -3.29311e-05 0
-7.92126e-06 -6.87101e-05 0
-2.97089e-06 -3.28137e-05 0
-3.95659e-06 -6.86284e-05 0
-7.92126e-06 -6.87101e-05 0
-9.27359e-06 -0.000112652 0
-3.95659e-06 -6.86284e-05 0
-4.63303e-06 -0.000112598 0
-2.97089e-06 -3.28137e-05 0
-3.95659e-06 -6.86284e-05 0
8.3063e-19 -3.27742e-05 0
1.27961e-18 -6.86012e-05 0
-3.95659e-06 -6.86284e-05 0
-4.63303e-06 -0.000112598 0
1.27961e-18 -6.86012e-05 0
1.65817e-18 -0.00011258 0
-1.86023e-05 -0.000112865 0
-2.02424e-05 -0.000161942 0
-1.39285e-05 -0.000112742 0
-1.51634e-05 -0.000161872 0
-2.02424e-05 -0.000161942 0
-2.1099e-05 -0.000213992 0
-1.51634e-05 -0.000161872 0
-1.58121e-05 -0.000213959 0
-1.39285e-05 -0.000112742 0
-1.51634e-05 -0.000161872 0
-9.27359e-06 -0.000112652 0
-1.01005e-05 -0.000161821 0
-1.51634e-05 -0.000161872 0
-1.58121e-05 -0.000213959 0
-1.01005e-05 -0.000161821 0
-1.05355e-05 -0.000213936 0
-2.1099e-05 -0.000213992 0
-2.14331e-05 -0.00026738 0
-1.58121e-05 -0.000213959 0
-1.6069e-05 -0.000267371 0
-2.14331e-05 -0.00026738 0
-2.15078e-05 -0.000321131 0
-1.6069e-05 -0.000267371 0
-1.61295e-05 -0.000321129 0
-1.58121e-05 -0.000213959 0
-1.6069e-05 -0.000267371 0
-1.05355e-05 -0.000213936 0
-1.07099e-05 -0.000267364 0
-1.6069e-05 -0.000267371 0
-1.61295e-05 -0.000321129 0
-1.07099e-05 -0.000267364 0
-1.07523e-05 -0.000321127 0
-9.27359e-06 -0.000112652 0
-1.01005e-05 -0.000161821 0
-4.63303e-06 -0.000112598 0
-5.04774e-06 -0.000161791 0
-1.01005e-05 -0.000161821 0
-1.05355e-05 -0.000213936 0
-5.04774e-06 -0.000161791 0
-5.26597e-06 -0.000213921 0
-4.63303e-06 -0.000112598 0
-5.04774e-06 -0.000161791 0
1.65817e-18 -0.00011258 0
1.9837e-18 -0.00016178 0
-5.04774e-06 -0.000161791 0
-5.26597e-06 -0.000213921 0
1.9837e-18 -0.00016178 0
1.98227e-18 -0.000213917 0
-1.05355e-05 -0.000213936 0
-1.07099e-05 -0.000267364 0
-5.26597e-06 -0.000213921 0
-5.35411e-06 -0.000267359 0
-1.07099e-05 -0.000267364 0
-1.07523e-05 -0.000321127 0
-5.35411e-06 -0.000267359 0
-5.37591e-06 -0.000321126 0
-5.26597e-06 -0.000213921 0
-5.35411e-06 -0.000267359 0
1.98227e-18 -0.000213917 0
2.51347e-18 -0.000267358 0
-5.35411e-06 -0.000267359 0
-5.37591e-06 -0.000321126 0
2.51347e-18 -0.000267358 0
3.0913e-18 -0.000321126 0
0 0 0
3.99136e-19 -8.76655e-06 0
0 0 0
1.48715e-06 -8.8303e-06 0
3.99136e-19 -8.76655e-06 0
8.3063e-19 -3.27742e-05 0
1.48715e-06 -8.8303e-06 0
2.97089e-06 -3.28137e-05 0
0 0 0
1.48715e-06 -8.8303e-06 0
0 0 0
3.0028e-06 -9.02224e-06 0
1.48715e-06 -8.8303e-06 0
2.97089e-06 -3.28137e-05 0
3.0028e-06 -9.02224e-06 0
5.94964e-06 -3.29311e-05 0
8.3063e-19 -3.27742e-05 0
1.27961e-18 -6.86012e-05 0
2.97089e-06 -3.28137e-05 0
3.95659e-06 -6.86284e-05 0
1.27961e-18 -6.86012e-05 0
1.65817e-18 -0.00011258 0
3.95659e-06 -6.86284e-05 0
4.63303e-06 -0.000112598 0
2.97089e-06 -3.28137e-05 0
3.95659e-06 -6.86284e-05 0
5.94964e-06 -3.29311e-05 0
7.92126e-06 -6.87101e-05 0
3.95659e-06 -6.86284e-05 0
4.63303e-06 -0.000112598 0
7.92126e-06 -6.87101e-05 0
9.27359e-06 -0.000112652 0
0 0 0
3.0028e-06 -9.02224e-06 0
0 0 0
4.58041e-06 -9.34435e-06 0
3.0028e-06 -9.02224e-06 0
5.94964e-06 -3.29311e-05 0
4.58041e-06 -9.34435e-06 0
8.93995e-06 -3.31237e-05 0
0 0 0
4.58041e-06 -9.34435e-06 0
0 0 0
6.26517e-06 -9.79957e-06 0
4.58041e-06 -9.34435e-06 0
8.93995e-06 -3.31237e-05 0
6.26517e-06 -9.79957e-06 0
1.19352e-05 -3.33863e-05 0
5.94964e-06 -3.29311e-05 0
7.92126e-06 -6.87101e-05 0
8.93995e-06 -3.31237e-05 0
1.1904e-05 -6.88474e-05 0
7.92126e-06 -6.87101e-05 0
9.27359e-06 -0.000112652 0
1.1904e-05 -6.88474e-05 0
1.39285e-05 -0.000112742 0
8.93995e-06 -3.31237e-05 0
1.1904e-05 -6.88474e-05 0
1.19352e-05 -3.33863e-05 0
1.59206e-05 -6.90422e-05 0
1.1904e-05 -6.88474e-05 0
1.39285e-05 -0.000112742 0
1.59206e-05 -6.90422e-05 0
1.86023e-05 -0.000112865 0
1.65817e-18 -0.00011258 0
1.9837e-18 -0.00016178 0
4.63303e-06 -0.000112598 0
5.04774e-06 -0.000161791 0
1.9837e-18 -0.00016178 0
1.98227e-18 -0.000213917 0
5.04774e-06 -0.000161791 0
5.26597e-06 -0.000213921 0
4.63303e-06 -0.000112598 0
5.04774e-06 -0.000161791 0
9.27359e-06 -0.000112652 0
1.01005e-05 -0.000161821 0
5.04774e-06 -0.000161791 0
5.26597e-06 -0.000213921 0
1.01005e-05 -0.000161821 0
1.05355e-05 -0.000213936 0
1.98227e-18 -0.000213917 0
2.51347e-18 -0.000267358 0
5.26597e-06 -0.000213921 0
5.35411e-06 -0.000267359 0
2.51347e-18 -0.000267358 0
3.0913e-18 -0.000321126 0
5.35411e-06 -0.000267359 0
5.37591e-06 -0.000321126 0
5.26597e-06 -0.000213921 0
5.35411e-06 -0.000267359 0
1.05355e-05 -0.000213936 0
1.07099e-05 -0.000267364 0
5.35411e-06 -0.000267359 0
5.37591e-06 -0.000321126 0
1.07099e-05 -0.000267364 0
1.07523e-05 -0.000321127 0
9.27359e-06 -0.000112652 0
1.01005e-05 -0.000161821 0
1.39285e-05 -0.000112742 0
1.51634e-05 -0.000161872 0
1.01005e-05 -0.000161821 0
1.05355e-05 -0.000213936 0
1.51634e-05 -0.000161872 0
1.58121e-05 -0.000213959 0
1.39285e-05 -0.000112742 0
1.51634e-05 -0.000161872 0
1.86023e-05 -0.000112865 0
2.02424e-05 -0.000161942 0
1.51634e-05 -0.000161872 0
1.58121e-05 -0.000213959 0
2.02424e-05 -0.000161942 0
2.1099e-05 -0.000213992 0
1.05355e-05 -0.000213936 0
1.07099e-05 -0.000267364 0
1.58121e-05 -0.000213959 0
1.6069e-05 -0.000267371 0
1.07099e-05 -0.000267364 0
1.07523e-05 -0.000321127 0
1.6069e-05 -0.000267371 0
1.61295e-05 -0.000321129 0
1.58121e-05 -0.000213959 0
1.6069e-05 -0.000267371 0
2.1099e-05 -0.000213992 0
2.14331e-05 -0.00026738 0
1.6069e-05 -0.000267371 0
1.61295e-05 -0.000321129 0
2.14331e-05 -0.00026738 0
2.15078e-05 -0.000321131 0
VECTORS velocity double
0 0 0
1.27198e-05 1.98955e-05 0
0 0 0
9.29934e-06 1.89713e-05 0
1.27198e-05 1.98955e-05 0
2.42313e-05 6.77824e-05 0
9.29934e-06 1.89713e-05 0
1.81503e-05 6.72492e-05 0
0 0 0
9.29934e-06 1.89713e-05 0
0 0 0
6.09641e-06 1.83174e-05 0
9.29934e-06 1.89713e-05 0
1.81503e-05 6.72492e-05 0
6.09641e-06 1.83174e-05 0
1.20792e-05 6.68581e-05 0
2.42313e-05 6.77824e-05 0
3.23226e-05 0.000140172 0
1.81503e-05 6.72492e-05 0
2.41681e-05 0.000139777 0
3.23226e-05 0.000140172 0
3.77671e-05 0.000229143 0
2.41681e-05 0.000139777 0
2.82782e-05 0.000228893 0
1.81503e-05 6.72492e-05 0
2.41681e-05 0.000139777 0
1.20792e-05 6.68581e-05 0
1.6082e-05 0.000139498 0
2.41681e-05 0.000139777 0
2.82782e-05 0.000228893 0
1.6082e-05 0.000139498 0
1.88276e-05 0.000228711 0
0 0 0
6.09641e-06 1.83174e-05 0
0 0 0
3.01928e-06 1.79277e-05 0
6.09641e-06 1.83174e-05 0
1.20792e-05 6.68581e-05 0
3.01928e-06 1.79277e-05 0
6.03163e-06 6.66197e-05 0
0 0 0
3.01928e-06 1.79277e-05 0
0 0 0
-1.88254e-18 1.77982e-05 0
3.01928e-06 1.79277e-05 0
6.03163e-06 6.66197e-05 0
-1.88254e-18 1.77982e-05 0
-9.58664e-18 6.65396e-05 0
1.20792e-05 6.68581e-05 0
1.6082e-05 0.000139498 0
6.03163e-06 6.66197e-05 0
8.03283e-06 0.000139332 0
1.6082e-05 0.000139498 0
1.88276e-05 0.000228711 0
8.03283e-06 0.000139332 0
9.40616e-06 0.000228602 0
6.03163e-06 6.66197e-05 0
8.03283e-06 0.000139332 0
-9.58664e-18 6.65396e-05 0
-1.49815e-17 0.000139277 0
8.03283e-06 0.000139332 0
9.40616e-06 0.000228602 0
-1.49815e-17 0.000139277 0
-2.11577e-17 0.000228565 0
3.77671e-05 0.000229143 0
4.1097e-05 0.000328782 0
2.82782e-05 0.000228893 0
3.07853e-05 0.000328638 0
4.1097e-05 0.000328782 0
4.2836e-05 0.000434454 0
3.07853e-05 0.000328638 0
3.21022e-05 0.000434388 0
2.82782e-05 0.000228893 0
3.07853e-05 0.000328638 0
1.88276e-05 0.000228711 0
2.05064e-05 0.000328536 0
3.07853e-05 0.000328638 0
3.21022e-05 0.000434388 0
2.05064e-05 0.000328536 0
2.13895e-05 0.000434341 0
4.2836e-05 0.000434454 0
4.35142e-05 0.000542846 0
3.21022e-05 0.000434388 0
3.26238e-05 0.000542826 0
4.35142e-05 0.000542846 0
4.3666e-05 0.000651972 0
3.26238e-05 0.000542826 0
3.27467e-05 0.000651968 0
3.21022e-05 0.000434388 0
3.26238e-05 0.000542826 0
2.13895e-05 0.000434341 0
2.17436e-05 0.000542812 0
3.26238e-05 0.000542826 0
3.27467e-05 0.000651968 0
2.17436e-05 0.000542812 0
2.18297e-05 0.000651965 0
1.88276e-05 0.000228711 0
2.05064e-05 0.000328536 0
9.40616e-06 0.000228602 0
1.02481e-05 0.000328474 0
2.05064e-05 0.000328536 0
2.13895e-05 0.000434341 0
1.02481e-05 0.000328474 0
1.06912e-05 0.000434311 0
9.40616e-06 0.000228602 0
1.02481e-05 0.000328474 0
-2.11577e-17 0.000228565 0
-2.98553e-17 0.000328453 0
1.02481e-05 0.000328474 0
1.06912e-05 0.000434311 0
-2.98553e-17 0.000328453 0
-6.17343e-17 0.000434302 0
2.13895e-05 0.000434341 0
2.17436e-05 0.000542812 0
1.06912e-05 0.000434311 0
1.08701e-05 0.000542803 0
2.17436e-05 0.000542812 0
2.18297e-05 0.000651965 0
1.08701e-05 0.000542803 0
1.09144e-05 0.000651962 0
1.06912e-05 0.000434311 0
1.08701e-05 0.000542803 0
-6.17343e-17 0.000434302 0
-8.1323e-17 0.000542799 0
1.08701e-05 0.000542803 0
1.09144e-05 0.000651962 0
-8.1323e-17 0.000542799 0
-7.16552e-17 0.000651961 0
0 0 0
-1.88254e-18 1.77982e-05 0
0 0 0
-3.01928e-06 1.79277e-05 0
-1.88254e-18 1.77982e-05 0
-9.58664e-18 6.65396e-05 0
-3.01928e-06 1.79277e-05 0
-6.03163e-06 6.66197e-05 0
0 0 0
-3.01928e-06 1.79277e-05 0
0 0 0
-6.09641e-06 1.83174e-05 0
-3.01928e-06 1.79277e-05 0
-6.03163e-06 6.66197e-05 0
-6.09641e-06 1.83174e-05 0
-1.20792e-05 6.68581e-05 0
-9.58664e-18 6.65396e-05 0
-1.49815e-17 0.000139277 0
-6.03163e-06 6.66197e-05 0
-8.03283e-06 0.000139332 0
-1.49815e-17 0.000139277 0
-2.11577e-17 0.000228565 0
-8.03283e-06 0.000139332 0
-9.40616e-06 0.000228602 0
-6.03163e-06 6.66197e-05 0
-8.03283e-06 0.000139332 0
-1.20792e-05 6.68581e-05 0
-1.6082e-05 0.000139498 0
-8.03283e-06 0.000139332 0
-9.40616e-06 0.000228602 0
-1.6082e-05 0.000139498 0
-1.88276e-05 0.000228711 0
0 0 0
-6.09641e-06 1.83174e-05 0
0 0 0
-9.29934e-06 1.89713e-05 0
-6.09641e-06 1.83174e-05 0
-1.20792e-05 6.68581e-05 0
-9.29934e-06 1.89713e-05 0
-1.81503e-05 6.72492e-05 0
0 0 0
-9.29934e-06 1.89713e-05 0
0 0 0
-1.27198e-05 1.98955e-05 0
-9.29934e-06 1.89713e-05 0
-1.81503e-05 6.72492e-05 0
-1.27198e-05 1.98955e-05 0
-2.42313e-05 6.77824e-05 0
-1.20792e-05 6.68581e-05 0
-1.6082e-05 0.000139498 0
-1.81503e-05 6.72492e-05 0
-2.41681e-05 0.000139777 0
-1.6082e-05 0.000139498 0
-1.88276e-05 0.000228711 0
-2.41681e-05 0.000139777 0
-2.82782e-05 0.000228893 0
-1.81503e-05 6.72492e-05 0
-2.41681e-05 0.000139777 0
-2.42313e-05 6.77824e-05 0
-3.23226e-05 0.000140172 0
-2.41681e-05 0.000139777 0
-2.82782e-05 0.000228893 0
-3.23226e-05 0.000140172 0
-3.77671e-05 0.000229143 0
-2.11577e-17 0.000228565 0
-2.98553e-17 0.000328453 0
-9.40616e-06 0.000228602 0
-1.02481e-05 0.000328474 0
-2.98553e-17 0.000328453 0
-6.17343e-17 0.000434302 0
-1.02481e-05 0.000328474 0
-1.06912e-05 0.000434311 0
-9.40616e-06 0.000228602 0
-1.02481e-05 0.000328474 0
-1.88276e-05 0.000228711 0
-2.05064e-05 0.000328536 0
-1.02481e-05 0.000328474 0
-1.06912e-05 0.000434311 0
-2.05064e-05 0.000328536 0
-2.13895e-05 0.000434341 0
-6.17343e-17 0.000434302 0
-8.1323e-17 0.000542799 0
-1.06912e-05 0.000434311 0
-1.08701e-05 0.000542803 0
-8.1323e-17 0.000542799 0
-7.16552e-17 0.000651961 0
-1.08701e-05 0.000542803 0
-1.09144e-05 0.000651962 0
-1.06912e-05 0.000434311 0
-1.08701e-05 0.000542803 0
-2.13895e-05 0.000434341 0
-2.17436e-05 0.000542812 0
-1.08701e-05 0.000542803 0
-1.09144e-05 0.000651962 0
-2.17436e-05 0.000542812 0
-2.18297e-05 0.000651965 0
-1.88276e-05 0.000228711 0
-2.05064e-05 0.000328536 0
-2.82782e-05 0.000228893 0
-3.07853e-05 0.000328638 0
-2.05064e-05 0.000328536 0
-2.13895e-05 0.000434341 0
-3.07853e-05 0.000328638 0
-3.21022e-05 0.000434388 0
-2.82782e-05 0.000228893 0
-3.07853e-05 0.000328638 0
-3.77671e-05 0.000229143 0
-4.1097e-05 0.000328782 0
-3.07853e-05 0.000328638 0
-3.21022e-05 0.000434388 0
-4.1097e-05 0.000328782 0
-4.2836e-05 0.000434454 0
-2.13895e-05 0.000434341 0
-2.17436e-05 0.000542812 0
-3.21022e-05 0.000434388 0
-3.26238e-05 0.000542826 0
-2.17436e-05 0.000542812 0
-2.18297e-05 0.000651965 0
-3.26238e-05 0.000542826 0
-3.27467e-05 0.000651968 0
-3.21022e-05 0.000434388 0
-3.26238e-05 0.000542826 0
-4.2836e-05 0.000434454 0
-4.35142e-05 0.000542846 0
-3.26238e-05 0.000542826 0
-3.27467e-05 0.000651968 0
-4.35142e-05 0.000542846 0
-4.3666e-05 0.000651972 0
