# vtk DataFile Version 3.0
#This file was generated by the deal.II library on 2025/3/10 at 16:36:20
ASCII
DATASET UNSTRUCTURED_GRID

FIELD FieldData 1
TIME 1 1 double
5.87681
POINTS 256 double
0 0 0
0.625 0 0
0 0.0625 0
0.625 0.0625 0
0.625 0 0
1.25 0 0
0.625 0.0625 0
1.25 0.0625 0
0 0.0625 0
0.625 0.0625 0
0 0.125 0
0.625 0.125 0
0.625 0.0625 0
1.25 0.0625 0
0.625 0.125 0
1.25 0.125 0
1.25 0 0
1.875 0 0
1.25 0.0625 0
1.875 0.0625 0
1.875 0 0
2.5 0 0
1.875 0.0625 0
2.5 0.0625 0
1.25 0.0625 0
1.875 0.0625 0
1.25 0.125 0
1.875 0.125 0
1.875 0.0625 0
2.5 0.0625 0
1.875 0.125 0
2.5 0.125 0
0 0.125 0
0.625 0.125 0
0 0.1875 0
0.625 0.1875 0
0.625 0.125 0
1.25 0.125 0
0.625 0.1875 0
1.25 0.1875 0
0 0.1875 0
0.625 0.1875 0
0 0.25 0
0.625 0.25 0
0.625 0.1875 0
1.25 0.1875 0
0.625 0.25 0
1.25 0.25 0
1.25 0.125 0
1.875 0.125 0
1.25 0.1875 0
1.875 0.1875 0
1.875 0.125 0
2.5 0.125 0
1.875 0.1875 0
2.5 0.1875 0
1.25 0.1875 0
1.875 0.1875 0
1.25 0.25 0
1.875 0.25 0
1.875 0.1875 0
2.5 0.1875 0
1.875 0.25 0
2.5 0.25 0
2.5 0 0
3.125 0 0
2.5 0.0625 0
3.125 0.0625 0
3.125 0 0
3.75 0 0
3.125 0.0625 0
3.75 0.0625 0
2.5 0.0625 0
3.125 0.0625 0
2.5 0.125 0
3.125 0.125 0
3.125 0.0625 0
3.75 0.0625 0
3.125 0.125 0
3.75 0.125 0
3.75 0 0
4.375 0 0
3.75 0.0625 0
4.375 0.0625 0
4.375 0 0
5 0 0
4.375 0.0625 0
5 0.0625 0
3.75 0.0625 0
4.375 0.0625 0
3.75 0.125 0
4.375 0.125 0
4.375 0.0625 0
5 0.0625 0
4.375 0.125 0
5 0.125 0
2.5 0.125 0
3.125 0.125 0
2.5 0.1875 0
3.125 0.1875 0
3.125 0.125 0
3.75 0.125 0
3.125 0.1875 0
3.75 0.1875 0
2.5 0.1875 0
3.125 0.1875 0
2.5 0.25 0
3.125 0.25 0
3.125 0.1875 0
3.75 0.1875 0
3.125 0.25 0
3.75 0.25 0
3.75 0.125 0
4.375 0.125 0
3.75 0.1875 0
4.375 0.1875 0
4.375 0.125 0
5 0.125 0
4.375 0.1875 0
5 0.1875 0
3.75 0.1875 0
4.375 0.1875 0
3.75 0.25 0
4.375 0.25 0
4.375 0.1875 0
5 0.1875 0
4.375 0.25 0
5 0.25 0
0 0.25 0
0.625 0.25 0
0 0.3125 0
0.625 0.3125 0
0.625 0.25 0
1.25 0.25 0
0.625 0.3125 0
1.25 0.3125 0
0 0.3125 0
0.625 0.3125 0
0 0.375 0
0.625 0.375 0
0.625 0.3125 0
1.25 0.3125 0
0.625 0.375 0
1.25 0.375 0
1.25 0.25 0
1.875 0.25 0
1.25 0.3125 0
1.875 0.3125 0
1.875 0.25 0
2.5 0.25 0
1.875 0.3125 0
2.5 0.3125 0
1.25 0.3125 0
1.875 0.3125 0
1.25 0.375 0
1.875 0.375 0
1.875 0.3125 0
2.5 0.3125 0
1.875 0.375 0
2.5 0.375 0
0 0.375 0
0.625 0.375 0
0 0.4375 0
0.625 0.4375 0
0.625 0.375 0
1.25 0.375 0
0.625 0.4375 0
1.25 0.4375 0
0 0.4375 0
0.625 0.4375 0
0 0.5 0
0.625 0.5 0
0.625 0.4375 0
1.25 0.4375 0
0.625 0.5 0
1.25 0.5 0
1.25 0.375 0
1.875 0.375 0
1.25 0.4375 0
1.875 0.4375 0
1.875 0.375 0
2.5 0.375 0
1.875 0.4375 0
2.5 0.4375 0
1.25 0.4375 0
1.875 0.4375 0
1.25 0.5 0
1.875 0.5 0
1.875 0.4375 0
2.5 0.4375 0
1.875 0.5 0
2.5 0.5 0
2.5 0.25 0
3.125 0.25 0
2.5 0.3125 0
3.125 0.3125 0
3.125 0.25 0
3.75 0.25 0
3.125 0.3125 0
3.75 0.3125 0
2.5 0.3125 0
3.125 0.3125 0
2.5 0.375 0
3.125 0.375 0
3.125 0.3125 0
3.75 0.3125 0
3.125 0.375 0
3.75 0.375 0
3.75 0.25 0
4.375 0.25 0
3.75 0.3125 0
4.375 0.3125 0
4.375 0.25 0
5 0.25 0
4.375 0.3125 0
5 0.3125 0
3.75 0.3125 0
4.375 0.3125 0
3.75 0.375 0
4.375 0.375 0
4.375 0.3125 0
5 0.3125 0
4.375 0.375 0
5 0.375 0
2.5 0.375 0
3.125 0.375 0
2.5 0.4375 0
3.125 0.4375 0
3.125 0.375 0
3.75 0.375 0
3.125 0.4375 0
3.75 0.4375 0
2.5 0.4375 0
3.125 0.4375 0
2.5 0.5 0
3.125 0.5 0
3.125 0.4375 0
3.75 0.4375 0
3.125 0.5 0
3.75 0.5 0
3.75 0.375 0
4.375 0.375 0
3.75 0.4375 0
4.375 0.4375 0
4.375 0.375 0
5 0.375 0
4.375 0.4375 0
5 0.4375 0
3.75 0.4375 0
4.375 0.4375 0
3.75 0.5 0
4.375 0.5 0
4.375 0.4375 0
5 0.4375 0
4.375 0.5 0
5 0.5 0

CELLS 64 320
4	0	1	3	2
4	4	5	7	6
4	8	9	11	10
4	12	13	15	14
4	16	17	19	18
4	20	21	23	22
4	24	25	27	26
4	28	29	31	30
4	32	33	35	34
4	36	37	39	38
4	40	41	43	42
4	44	45	47	46
4	48	49	51	50
4	52	53	55	54
4	56	57	59	58
4	60	61	63	62
4	64	65	67	66
4	68	69	71	70
4	72	73	75	74
4	76	77	79	78
4	80	81	83	82
4	84	85	87	86
4	88	89	91	90
4	92	93	95	94
4	96	97	99	98
4	100	101	103	102
4	104	105	107	106
4	108	109	111	110
4	112	113	115	114
4	116	117	119	118
4	120	121	123	122
4	124	125	127	126
4	128	129	131	130
4	132	133	135	134
4	136	137	139	138
4	140	141	143	142
4	144	145	147	146
4	148	149	151	150
4	152	153	155	154
4	156	157	159	158
4	160	161	163	162
4	164	165	167	166
4	168	169	171	170
4	172	173	175	174
4	176	177	179	178
4	180	181	183	182
4	184	185	187	186
4	188	189	191	190
4	192	193	195	194
4	196	197	199	198
4	200	201	203	202
4	204	205	207	206
4	208	209	211	210
4	212	213	215	214
4	216	217	219	218
4	220	221	223	222
4	224	225	227	226
4	228	229	231	230
4	232	233	235	234
4	236	237	239	238
4	240	241	243	242
4	244	245	247	246
4	248	249	251	250
4	252	253	255	254

CELL_TYPES 64
 9 9 9 9 9 9 9 9 9 9 9 9 9 9 9 9 9 9 9 9 9 9 9 9 9 9 9 9 9 9 9 9 9 9 9 9 9 9 9 9 9 9 9 9 9 9 9 9 9 9 9 9 9 9 9 9 9 9 9 9 9 9 9 9
POINT_DATA 256
VECTORS displacement double
0 0 0
-5.6325e-06 -8.80998e-06 0
0 0 0
-4.11787e-06 -8.40074e-06 0
-5.6325e-06 -8.80998e-06 0
-1.07299e-05 -3.00149e-05 0
-4.11787e-06 -8.40074e-06 0
-8.03717e-06 -2.97788e-05 0
0 0 0
-4.11787e-06 -8.40074e-06 0
0 0 0
-2.69957e-06 -8.11115e-06 0
-4.11787e-06 -8.40074e-06 0
-8.03717e-06 -2.97788e-05 0
-2.69957e-06 -8.11115e-06 0
-5.34883e-06 -2.96056e-05 0
-1.07299e-05 -3.00149e-05 0
-1.43129e-05 -6.20702e-05 0
-8.03717e-06 -2.97788e-05 0
-1.07019e-05 -6.1895e-05 0
-1.43129e-05 -6.20702e-05 0
-1.67238e-05 -0.000101468 0
-1.07019e-05 -6.1895e-05 0
-1.2522e-05 -0.000101357 0
-8.03717e-06 -2.97788e-05 0
-1.07019e-05 -6.1895e-05 0
-5.34883e-06 -2.96056e-05 0
-7.12135e-06 -6.17716e-05 0
-1.07019e-05 -6.1895e-05 0
-1.2522e-05 -0.000101357 0
-7.12135e-06 -6.17716e-05 0
-8.33712e-06 -0.000101276 0
0 0 0
-2.69957e-06 -8.11115e-06 0
0 0 0
-1.33698e-06 -7.93859e-06 0
-2.69957e-06 -8.11115e-06 0
-5.34883e-06 -2.96056e-05 0
-1.33698e-06 -7.93859e-06 0
-2.67089e-06 -2.95001e-05 0
0 0 0
-1.33698e-06 -7.93859e-06 0
0 0 0
3.37095e-19 -7.88128e-06 0
-1.33698e-06 -7.93859e-06 0
-2.67089e-06 -2.95001e-05 0
3.37095e-19 -7.88128e-06 0
7.2056e-19 -2.94646e-05 0
-5.34883e-06 -2.96056e-05 0
-7.12135e-06 -6.17716e-05 0
-2.67089e-06 -2.95001e-05 0
-3.55705e-06 -6.16981e-05 0
-7.12135e-06 -6.17716e-05 0
-8.33712e-06 -0.000101276 0
-3.55705e-06 -6.16981e-05 0
-4.16518e-06 -0.000101228 0
-2.67089e-06 -2.95001e-05 0
-3.55705e-06 -6.16981e-05 0
7.2056e-19 -2.94646e-05 0
1.17022e-18 -6.16737e-05 0
-3.55705e-06 -6.16981e-05 0
-4.16518e-06 -0.000101228 0
1.17022e-18 -6.16737e-05 0
1.52554e-18 -0.000101212 0
-1.67238e-05 -0.000101468 0
-1.81983e-05 -0.000145589 0
-1.2522e-05 -0.000101357 0
-1.36322e-05 -0.000145526 0
-1.81983e-05 -0.000145589 0
-1.89684e-05 -0.000192382 0
-1.36322e-05 -0.000145526 0
-1.42153e-05 -0.000192353 0
-1.2522e-05 -0.000101357 0
-1.36322e-05 -0.000145526 0
-8.33712e-06 -0.000101276 0
-9.08051e-06 -0.00014548 0
-1.36322e-05 -0.000145526 0
-1.42153e-05 -0.000192353 0
-9.08051e-06 -0.00014548 0
-9.47159e-06 -0.000192332 0
-1.89684e-05 -0.000192382 0
-1.92687e-05 -0.00024038 0
-1.42153e-05 -0.000192353 0
-1.44463e-05 -0.000240371 0
-1.92687e-05 -0.00024038 0
-1.93359e-05 -0.000288703 0
-1.44463e-05 -0.000240371 0
-1.45007e-05 -0.000288701 0
-1.42153e-05 -0.000192353 0
-1.44463e-05 -0.000240371 0
-9.47159e-06 -0.000192332 0
-9.62838e-06 -0.000240365 0
-1.44463e-05 -0.000240371 0
-1.45007e-05 -0.000288701 0
-9.62838e-06 -0.000240365 0
-9.66649e-06 -0.000288699 0
-8.33712e-06 -0.000101276 0
-9.08051e-06 -0.00014548 0
-4.16518e-06 -0.000101228 0
-4.538e-06 -0.000145453 0
-9.08051e-06 -0.00014548 0
-9.47159e-06 -0.000192332 0
-4.538e-06 -0.000145453 0
-4.7342e-06 -0.000192319 0
-4.16518e-06 -0.000101228 0
-4.538e-06 -0.000145453 0
1.52554e-18 -0.000101212 0
1.95237e-18 -0.000145443 0
-4.538e-06 -0.000145453 0
-4.7342e-06 -0.000192319 0
1.95237e-18 -0.000145443 0
2.48555e-18 -0.000192315 0
-9.47159e-06 -0.000192332 0
-9.62838e-06 -0.000240365 0
-4.7342e-06 -0.000192319 0
-4.81344e-06 -0.000240361 0
-9.62838e-06 -0.000240365 0
-9.66649e-06 -0.000288699 0
-4.81344e-06 -0.000240361 0
-4.83304e-06 -0.000288698 0
-4.7342e-06 -0.000192319 0
-4.81344e-06 -0.000240361 0
2.48555e-18 -0.000192315 0
3.00305e-18 -0.000240359 0
-4.81344e-06 -0.000240361 0
-4.83304e-06 -0.000288698 0
3.00305e-18 -0.000240359 0
3.556e-18 -0.000288698 0
0 0 0
3.37095e-19 -7.88128e-06 0
0 0 0
1.33698e-06 -7.93859e-06 0
3.37095e-19 -7.88128e-06 0
7.2056e-19 -2.94646e-05 0
1.33698e-06 -7.93859e-06 0
2.67089e-06 -2.95001e-05 0
0 0 0
1.33698e-06 -7.93859e-06 0
0 0 0
2.69957e-06 -8.11115e-06 0
1.33698e-06 -7.93859e-06 0
2.67089e-06 -2.95001e-05 0
2.69957e-06 -8.11115e-06 0
5.34883e-06 -2.96056e-05 0
7.2056e-19 -2.94646e-05 0
1.17022e-18 -6.16737e-05 0
2.67089e-06 -2.95001e-05 0
3.55705e-06 -6.16981e-05 0
1.17022e-18 -6.16737e-05 0
1.52554e-18 -0.000101212 0
3.55705e-06 -6.16981e-05 0
4.16518e-06 -0.000101228 0
2.67089e-06 -2.95001e-05 0
3.55705e-06 -6.16981e-05 0
5.34883e-06 -2.96056e-05 0
7.12135e-06 -6.17716e-05 0
3.55705e-06 -6.16981e-05 0
4.16518e-06 -0.000101228 0
7.12135e-06 -6.17716e-05 0
8.33712e-06 -0.000101276 0
0 0 0
2.69957e-06 -8.11115e-06 0
0 0 0
4.11787e-06 -8.40074e-06 0
2.69957e-06 -8.11115e-06 0
5.34883e-06 -2.96056e-05 0
4.11787e-06 -8.40074e-06 0
8.03717e-06 -2.97788e-05 0
0 0 0
4.11787e-06 -8.40074e-06 0
0 0 0
5.6325e-06 -8.80998e-06 0
4.11787e-06 -8.40074e-06 0
8.03717e-06 -2.97788e-05 0
5.6325e-06 -8.80998e-06 0
1.07299e-05 -3.00149e-05 0
5.34883e-06 -2.96056e-05 0
7.12135e-06 -6.17716e-05 0
8.03717e-06 -2.97788e-05 0
1.07019e-05 -6.1895e-05 0
7.12135e-06 -6.17716e-05 0
8.33712e-06 -0.000101276 0
1.07019e-05 -6.1895e-05 0
1.2522e-05 -0.000101357 0
8.03717e-06 -2.97788e-05 0
1.07019e-05 -6.1895e-05 0
1.07299e-05 -3.00149e-05 0
1.43129e-05 -6.20702e-05 0
1.07019e-05 -6.1895e-05 0
1.2522e-05 -0.000101357 0
1.43129e-05 -6.20702e-05 0
1.67238e-05 -0.000101468 0
1.52554e-18 -0.000101212 0
1.95237e-18 -0.000145443 0
4.16518e-06 -0.000101228 0
4.538e-06 -0.000145453 0
1.95237e-18 -0.000145443 0
2.48555e-18 -0.000192315 0
4.538e-06 -0.000145453 0
4.7342e-06 -0.000192319 0
4.16518e-06 -0.000101228 0
4.538e-06 -0.000145453 0
8.33712e-06 -0.000101276 0
9.08051e-06 -0.00014548 0
4.538e-06 -0.000145453 0
4.7342e-06 -0.000192319 0
9.08051e-06 -0.00014548 0
9.47159e-06 -0.000192332 0
2.48555e-18 -0.000192315 0
3.00305e-18 -0.000240359 0
4.7342e-06 -0.000192319 0
4.81344e-06 -0.000240361 0
3.00305e-18 -0.000240359 0
3.556e-18 -0.000288698 0
4.81344e-06 -0.000240361 0
4.83304e-06 -0.000288698 0
4.7342e-06 -0.000192319 0
4.81344e-06 -0.000240361 0
9.47159e-06 -0.000192332 0
9.62838e-06 -0.000240365 0
4.81344e-06 -0.000240361 0
4.83304e-06 -0.000288698 0
9.62838e-06 -0.000240365 0
9.66649e-06 -0.000288699 0
8.33712e-06 -0.000101276 0
9.08051e-06 -0.00014548 0
1.2522e-05 -0.000101357 0
1.36322e-05 -0.000145526 0
9.08051e-06 -0.00014548 0
9.47159e-06 -0.000192332 0
1.36322e-05 -0.000145526 0
1.42153e-05 -0.000192353 0
1.2522e-05 -0.000101357 0
1.36322e-05 -0.000145526 0
1.67238e-05 -0.000101468 0
1.81983e-05 -0.000145589 0
1.36322e-05 -0.000145526 0
1.42153e-05 -0.000192353 0
1.81983e-05 -0.000145589 0
1.89684e-05 -0.000192382 0
9.47159e-06 -0.000192332 0
9.62838e-06 -0.000240365 0
1.42153e-05 -0.000192353 0
1.44463e-05 -0.000240371 0
9.62838e-06 -0.000240365 0
9.66649e-06 -0.000288699 0
1.44463e-05 -0.000240371 0
1.45007e-05 -0.000288701 0
1.42153e-05 -0.000192353 0
1.44463e-05 -0.000240371 0
1.89684e-05 -0.000192382 0
1.92687e-05 -0.00024038 0
1.44463e-05 -0.000240371 0
1.45007e-05 -0.000288701 0
1.92687e-05 -0.00024038 0
1.93359e-05 -0.000288703 0
VECTORS velocity double
0 0 0
1.30183e-05 2.03624e-05 0
0 0 0
9.51757e-06 1.94165e-05 0
1.30183e-05 2.03624e-05 0
2.47999e-05 6.9373e-05 0
9.51757e-06 1.94165e-05 0
1.85762e-05 6.88272e-05 0
0 0 0
9.51757e-06 1.94165e-05 0
0 0 0
6.23947e-06 1.87472e-05 0
9.51757e-06 1.94165e-05 0
1.85762e-05 6.88272e-05 0
6.23947e-06 1.87472e-05 0
1.23627e-05 6.84271e-05 0
2.47999e-05 6.9373e-05 0
3.30811e-05 0.000143462 0
1.85762e-05 6.88272e-05 0
2.47352e-05 0.000143057 0
3.30811e-05 0.000143462 0
3.86534e-05 0.00023452 0
2.47352e-05 0.000143057 0
2.89418e-05 0.000234264 0
1.85762e-05 6.88272e-05 0
2.47352e-05 0.000143057 0
1.23627e-05 6.84271e-05 0
1.64594e-05 0.000142772 0
2.47352e-05 0.000143057 0
2.89418e-05 0.000234264 0
1.64594e-05 0.000142772 0
1.92694e-05 0.000234078 0
0 0 0
6.23947e-06 1.87472e-05 0
0 0 0
3.09013e-06 1.83484e-05 0
6.23947e-06 1.87472e-05 0
1.23627e-05 6.84271e-05 0
3.09013e-06 1.83484e-05 0
6.17317e-06 6.8183e-05 0
0 0 0
3.09013e-06 1.83484e-05 0
0 0 0
-7.32587e-18 1.82159e-05 0
3.09013e-06 1.83484e-05 0
6.17317e-06 6.8183e-05 0
-7.32587e-18 1.82159e-05 0
-2.09341e-17 6.81011e-05 0
1.23627e-05 6.84271e-05 0
1.64594e-05 0.000142772 0
6.17317e-06 6.8183e-05 0
8.22133e-06 0.000142602 0
1.64594e-05 0.000142772 0
1.92694e-05 0.000234078 0
8.22133e-06 0.000142602 0
9.62689e-06 0.000233966 0
6.17317e-06 6.8183e-05 0
8.22133e-06 0.000142602 0
-2.09341e-17 6.81011e-05 0
-3.29938e-17 0.000142545 0
8.22133e-06 0.000142602 0
9.62689e-06 0.000233966 0
-3.29938e-17 0.000142545 0
-4.55863e-17 0.000233929 0
3.86534e-05 0.00023452 0
4.20614e-05 0.000336497 0
2.89418e-05 0.000234264 0
3.15077e-05 0.00033635 0
4.20614e-05 0.000336497 0
4.38412e-05 0.000444649 0
3.15077e-05 0.00033635 0
3.28555e-05 0.000444582 0
2.89418e-05 0.000234264 0
3.15077e-05 0.00033635 0
1.92694e-05 0.000234078 0
2.09876e-05 0.000336245 0
3.15077e-05 0.00033635 0
3.28555e-05 0.000444582 0
2.09876e-05 0.000336245 0
2.18914e-05 0.000444533 0
4.38412e-05 0.000444649 0
4.45353e-05 0.000555584 0
3.28555e-05 0.000444582 0
3.33894e-05 0.000555564 0
4.45353e-05 0.000555584 0
4.46907e-05 0.000667272 0
3.33894e-05 0.000555564 0
3.35151e-05 0.000667268 0
3.28555e-05 0.000444582 0
3.33894e-05 0.000555564 0
2.18914e-05 0.000444533 0
2.22538e-05 0.000555549 0
3.33894e-05 0.000555564 0
3.35151e-05 0.000667268 0
2.22538e-05 0.000555549 0
2.23419e-05 0.000667264 0
1.92694e-05 0.000234078 0
2.09876e-05 0.000336245 0
9.62689e-06 0.000233966 0
1.04886e-05 0.000336182 0
2.09876e-05 0.000336245 0
2.18914e-05 0.000444533 0
1.04886e-05 0.000336182 0
1.09421e-05 0.000444503 0
9.62689e-06 0.000233966 0
1.04886e-05 0.000336182 0
-4.55863e-17 0.000233929 0
-4.97032e-17 0.000336161 0
1.04886e-05 0.000336182 0
1.09421e-05 0.000444503 0
-4.97032e-17 0.000336161 0
-4.98778e-17 0.000444493 0
2.18914e-05 0.000444533 0
2.22538e-05 0.000555549 0
1.09421e-05 0.000444503 0
1.11252e-05 0.00055554 0
2.22538e-05 0.000555549 0
2.23419e-05 0.000667264 0
1.11252e-05 0.00055554 0
1.11705e-05 0.000667261 0
1.09421e-05 0.000444503 0
1.11252e-05 0.00055554 0
-4.98778e-17 0.000444493 0
-4.49235e-17 0.000555537 0
1.11252e-05 0.00055554 0
1.11705e-05 0.000667261 0
-4.49235e-17 0.000555537 0
-3.64887e-18 0.00066726 0
0 0 0
-7.32587e-18 1.82159e-05 0
0 0 0
-3.09013e-06 1.83484e-05 0
-7.32587e-18 1.82159e-05 0
-2.09341e-17 6.81011e-05 0
-3.09013e-06 1.83484e-05 0
-6.17317e-06 6.8183e-05 0
0 0 0
-3.09013e-06 1.83484e-05 0
0 0 0
-6.23947e-06 1.87472e-05 0
-3.09013e-06 1.83484e-05 0
-6.17317e-06 6.8183e-05 0
-6.23947e-06 1.87472e-05 0
-1.23627e-05 6.84271e-05 0
-2.09341e-17 6.81011e-05 0
-3.29938e-17 0.000142545 0
-6.17317e-06 6.8183e-05 0
-8.22133e-06 0.000142602 0
-3.29938e-17 0.000142545 0
-4.55863e-17 0.000233929 0
-8.22133e-06 0.000142602 0
-9.62689e-06 0.000233966 0
-6.17317e-06 6.8183e-05 0
-8.22133e-06 0.000142602 0
-1.23627e-05 6.84271e-05 0
-1.64594e-05 0.000142772 0
-8.22133e-06 0.000142602 0
-9.62689e-06 0.000233966 0
-1.64594e-05 0.000142772 0
-1.92694e-05 0.000234078 0
0 0 0
-6.23947e-06 1.87472e-05 0
0 0 0
-9.51757e-06 1.94165e-05 0
-6.23947e-06 1.87472e-05 0
-1.23627e-05 6.84271e-05 0
-9.51757e-06 1.94165e-05 0
-1.85762e-05 6.88272e-05 0
0 0 0
-9.51757e-06 1.94165e-05 0
0 0 0
-1.30183e-05 2.03624e-05 0
-9.51757e-06 1.94165e-05 0
-1.85762e-05 6.88272e-05 0
-1.30183e-05 2.03624e-05 0
-2.47999e-05 6.9373e-05 0
-1.23627e-05 6.84271e-05 0
-1.64594e-05 0.000142772 0
-1.85762e-05 6.88272e-05 0
-2.47352e-05 0.000143057 0
-1.64594e-05 0.000142772 0
-1.92694e-05 0.000234078 0
-2.47352e-05 0.000143057 0
-2.89418e-05 0.000234264 0
-1.85762e-05 6.88272e-05 0
-2.47352e-05 0.000143057 0
-2.47999e-05 6.9373e-05 0
-3.30811e-05 0.000143462 0
-2.47352e-05 0.000143057 0
-2.89418e-05 0.000234264 0
-3.30811e-05 0.000143462 0
-3.86534e-05 0.00023452 0
-4.55863e-17 0.000233929 0
-4.97032e-17 0.000336161 0
-9.62689e-06 0.000233966 0
-1.04886e-05 0.000336182 0
-4.97032e-17 0.000336161 0
-4.98778e-17 0.000444493 0
-1.04886e-05 0.000336182 0
-1.09421e-05 0.000444503 0
-9.62689e-06 0.000233966 0
-1.04886e-05 0.000336182 0
-1.92694e-05 0.000234078 0
-2.09876e-05 0.000336245 0
-1.04886e-05 0.000336182 0
-1.09421e-05 0.000444503 0
-2.09876e-05 0.000336245 0
-2.18914e-05 0.000444533 0
-4.98778e-17 0.000444493 0
-4.49235e-17 0.000555537 0
-1.09421e-05 0.000444503 0
-1.11252e-05 0.00055554 0
-4.49235e-17 0.000555537 0
-3.64887e-18 0.00066726 0
-1.11252e-05 0.00055554 0
-1.11705e-05 0.000667261 0
-1.09421e-05 0.000444503 0
-1.11252e-05 0.00055554 0
-2.18914e-05 0.000444533 0
-2.22538e-05 0.000555549 0
-1.11252e-05 0.00055554 0
-1.11705e-05 0.000667261 0
-2.22538e-05 0.000555549 0
-2.23419e-05 0.000667264 0
-1.92694e-05 0.000234078 0
-2.09876e-05 0.000336245 0
-2.89418e-05 0.000234264 0
-3.15077e-05 0.00033635 0
-2.09876e-05 0.000336245 0
-2.18914e-05 0.000444533 0
-3.15077e-05 0.00033635 0
-3.28555e-05 0.000444582 0
-2.89418e-05 0.000234264 0
-3.15077e-05 0.00033635 0
-3.86534e-05 0.00023452 0
-4.20614e-05 0.000336497 0
-3.15077e-05 0.00033635 0
-3.28555e-05 0.000444582 0
-4.20614e-05 0.000336497 0
-4.38412e-05 0.000444649 0
-2.18914e-05 0.000444533 0
-2.22538e-05 0.000555549 0
-3.28555e-05 0.000444582 0
-3.33894e-05 0.000555564 0
-2.22538e-05 0.000555549 0
-2.23419e-05 0.000667264 0
-3.33894e-05 0.000555564 0
-3.35151e-05 0.000667268 0
-3.28555e-05 0.000444582 0
-3.33894e-05 0.000555564 0
-4.38412e-05 0.000444649 0
-4.45353e-05 0.000555584 0
-3.33894e-05 0.000555564 0
-3.35151e-05 0.000667268 0
-4.45353e-05 0.000555584 0
-4.46907e-05 0.000667272 0
