# vtk DataFile Version 3.0
#This file was generated by the deal.II library on 2025/3/10 at 16:30:02
ASCII
DATASET UNSTRUCTURED_GRID

FIELD FieldData 1
TIME 1 1 double
0.183268
POINTS 256 double
0 0 0
0.625 0 0
0 0.0625 0
0.625 0.0625 0
0.625 0 0
1.25 0 0
0.625 0.0625 0
1.25 0.0625 0
0 0.0625 0
0.625 0.0625 0
0 0.125 0
0.625 0.125 0
0.625 0.0625 0
1.25 0.0625 0
0.625 0.125 0
1.25 0.125 0
1.25 0 0
1.875 0 0
1.25 0.0625 0
1.875 0.0625 0
1.875 0 0
2.5 0 0
1.875 0.0625 0
2.5 0.0625 0
1.25 0.0625 0
1.875 0.0625 0
1.25 0.125 0
1.875 0.125 0
1.875 0.0625 0
2.5 0.0625 0
1.875 0.125 0
2.5 0.125 0
0 0.125 0
0.625 0.125 0
0 0.1875 0
0.625 0.1875 0
0.625 0.125 0
1.25 0.125 0
0.625 0.1875 0
1.25 0.1875 0
0 0.1875 0
0.625 0.1875 0
0 0.25 0
0.625 0.25 0
0.625 0.1875 0
1.25 0.1875 0
0.625 0.25 0
1.25 0.25 0
1.25 0.125 0
1.875 0.125 0
1.25 0.1875 0
1.875 0.1875 0
1.875 0.125 0
2.5 0.125 0
1.875 0.1875 0
2.5 0.1875 0
1.25 0.1875 0
1.875 0.1875 0
1.25 0.25 0
1.875 0.25 0
1.875 0.1875 0
2.5 0.1875 0
1.875 0.25 0
2.5 0.25 0
2.5 0 0
3.125 0 0
2.5 0.0625 0
3.125 0.0625 0
3.125 0 0
3.75 0 0
3.125 0.0625 0
3.75 0.0625 0
2.5 0.0625 0
3.125 0.0625 0
2.5 0.125 0
3.125 0.125 0
3.125 0.0625 0
3.75 0.0625 0
3.125 0.125 0
3.75 0.125 0
3.75 0 0
4.375 0 0
3.75 0.0625 0
4.375 0.0625 0
4.375 0 0
5 0 0
4.375 0.0625 0
5 0.0625 0
3.75 0.0625 0
4.375 0.0625 0
3.75 0.125 0
4.375 0.125 0
4.375 0.0625 0
5 0.0625 0
4.375 0.125 0
5 0.125 0
2.5 0.125 0
3.125 0.125 0
2.5 0.1875 0
3.125 0.1875 0
3.125 0.125 0
3.75 0.125 0
3.125 0.1875 0
3.75 0.1875 0
2.5 0.1875 0
3.125 0.1875 0
2.5 0.25 0
3.125 0.25 0
3.125 0.1875 0
3.75 0.1875 0
3.125 0.25 0
3.75 0.25 0
3.75 0.125 0
4.375 0.125 0
3.75 0.1875 0
4.375 0.1875 0
4.375 0.125 0
5 0.125 0
4.375 0.1875 0
5 0.1875 0
3.75 0.1875 0
4.375 0.1875 0
3.75 0.25 0
4.375 0.25 0
4.375 0.1875 0
5 0.1875 0
4.375 0.25 0
5 0.25 0
0 0.25 0
0.625 0.25 0
0 0.3125 0
0.625 0.3125 0
0.625 0.25 0
1.25 0.25 0
0.625 0.3125 0
1.25 0.3125 0
0 0.3125 0
0.625 0.3125 0
0 0.375 0
0.625 0.375 0
0.625 0.3125 0
1.25 0.3125 0
0.625 0.375 0
1.25 0.375 0
1.25 0.25 0
1.875 0.25 0
1.25 0.3125 0
1.875 0.3125 0
1.875 0.25 0
2.5 0.25 0
1.875 0.3125 0
2.5 0.3125 0
1.25 0.3125 0
1.875 0.3125 0
1.25 0.375 0
1.875 0.375 0
1.875 0.3125 0
2.5 0.3125 0
1.875 0.375 0
2.5 0.375 0
0 0.375 0
0.625 0.375 0
0 0.4375 0
0.625 0.4375 0
0.625 0.375 0
1.25 0.375 0
0.625 0.4375 0
1.25 0.4375 0
0 0.4375 0
0.625 0.4375 0
0 0.5 0
0.625 0.5 0
0.625 0.4375 0
1.25 0.4375 0
0.625 0.5 0
1.25 0.5 0
1.25 0.375 0
1.875 0.375 0
1.25 0.4375 0
1.875 0.4375 0
1.875 0.375 0
2.5 0.375 0
1.875 0.4375 0
2.5 0.4375 0
1.25 0.4375 0
1.875 0.4375 0
1.25 0.5 0
1.875 0.5 0
1.875 0.4375 0
2.5 0.4375 0
1.875 0.5 0
2.5 0.5 0
2.5 0.25 0
3.125 0.25 0
2.5 0.3125 0
3.125 0.3125 0
3.125 0.25 0
3.75 0.25 0
3.125 0.3125 0
3.75 0.3125 0
2.5 0.3125 0
3.125 0.3125 0
2.5 0.375 0
3.125 0.375 0
3.125 0.3125 0
3.75 0.3125 0
3.125 0.375 0
3.75 0.375 0
3.75 0.25 0
4.375 0.25 0
3.75 0.3125 0
4.375 0.3125 0
4.375 0.25 0
5 0.25 0
4.375 0.3125 0
5 0.3125 0
3.75 0.3125 0
4.375 0.3125 0
3.75 0.375 0
4.375 0.375 0
4.375 0.3125 0
5 0.3125 0
4.375 0.375 0
5 0.375 0
2.5 0.375 0
3.125 0.375 0
2.5 0.4375 0
3.125 0.4375 0
3.125 0.375 0
3.75 0.375 0
3.125 0.4375 0
3.75 0.4375 0
2.5 0.4375 0
3.125 0.4375 0
2.5 0.5 0
3.125 0.5 0
3.125 0.4375 0
3.75 0.4375 0
3.125 0.5 0
3.75 0.5 0
3.75 0.375 0
4.375 0.375 0
3.75 0.4375 0
4.375 0.4375 0
4.375 0.375 0
5 0.375 0
4.375 0.4375 0
5 0.4375 0
3.75 0.4375 0
4.375 0.4375 0
3.75 0.5 0
4.375 0.5 0
4.375 0.4375 0
5 0.4375 0
4.375 0.5 0
5 0.5 0

CELLS 64 320
4	0	1	3	2
4	4	5	7	6
4	8	9	11	10
4	12	13	15	14
4	16	17	19	18
4	20	21	23	22
4	24	25	27	26
4	28	29	31	30
4	32	33	35	34
4	36	37	39	38
4	40	41	43	42
4	44	45	47	46
4	48	49	51	50
4	52	53	55	54
4	56	57	59	58
4	60	61	63	62
4	64	65	67	66
4	68	69	71	70
4	72	73	75	74
4	76	77	79	78
4	80	81	83	82
4	84	85	87	86
4	88	89	91	90
4	92	93	95	94
4	96	97	99	98
4	100	101	103	102
4	104	105	107	106
4	108	109	111	110
4	112	113	115	114
4	116	117	119	118
4	120	121	123	122
4	124	125	127	126
4	128	129	131	130
4	132	133	135	134
4	136	137	139	138
4	140	141	143	142
4	144	145	147	146
4	148	149	151	150
4	152	153	155	154
4	156	157	159	158
4	160	161	163	162
4	164	165	167	166
4	168	169	171	170
4	172	173	175	174
4	176	177	179	178
4	180	181	183	182
4	184	185	187	186
4	188	189	191	190
4	192	193	195	194
4	196	197	199	198
4	200	201	203	202
4	204	205	207	206
4	208	209	211	210
4	212	213	215	214
4	216	217	219	218
4	220	221	223	222
4	224	225	227	226
4	228	229	231	230
4	232	233	235	234
4	236	237	239	238
4	240	241	243	242
4	244	245	247	246
4	248	249	251	250
4	252	253	255	254

CELL_TYPES 64
 9 9 9 9 9 9 9 9 9 9 9 9 9 9 9 9 9 9 9 9 9 9 9 9 9 9 9 9 9 9 9 9 9 9 9 9 9 9 9 9 9 9 9 9 9 9 9 9 9 9 9 9 9 9 9 9 9 9 9 9 9 9 9 9
POINT_DATA 256
VECTORS displacement double
0 0 0
2.59724e-06 4.06241e-06 0
0 0 0
1.89882e-06 3.8737e-06 0
2.59724e-06 4.06241e-06 0
4.94778e-06 1.38404e-05 0
1.89882e-06 3.8737e-06 0
3.7061e-06 1.37315e-05 0
0 0 0
1.89882e-06 3.8737e-06 0
0 0 0
1.24482e-06 3.74017e-06 0
1.89882e-06 3.8737e-06 0
3.7061e-06 1.37315e-05 0
1.24482e-06 3.74017e-06 0
2.46645e-06 1.36517e-05 0
4.94778e-06 1.38404e-05 0
6.6e-06 2.86218e-05 0
3.7061e-06 1.37315e-05 0
4.93491e-06 2.8541e-05 0
6.6e-06 2.86218e-05 0
7.71175e-06 4.67888e-05 0
4.93491e-06 2.8541e-05 0
5.77419e-06 4.67377e-05 0
3.7061e-06 1.37315e-05 0
4.93491e-06 2.8541e-05 0
2.46645e-06 1.36517e-05 0
3.28381e-06 2.84841e-05 0
4.93491e-06 2.8541e-05 0
5.77419e-06 4.67377e-05 0
3.28381e-06 2.84841e-05 0
3.84445e-06 4.67007e-05 0
0 0 0
1.24482e-06 3.74017e-06 0
0 0 0
6.16504e-07 3.6606e-06 0
1.24482e-06 3.74017e-06 0
2.46645e-06 1.36517e-05 0
6.16504e-07 3.6606e-06 0
1.2316e-06 1.3603e-05 0
0 0 0
6.16504e-07 3.6606e-06 0
0 0 0
1.63131e-19 3.63417e-06 0
6.16504e-07 3.6606e-06 0
1.2316e-06 1.3603e-05 0
1.63131e-19 3.63417e-06 0
3.84522e-19 1.35866e-05 0
2.46645e-06 1.36517e-05 0
3.28381e-06 2.84841e-05 0
1.2316e-06 1.3603e-05 0
1.64023e-06 2.84502e-05 0
3.28381e-06 2.84841e-05 0
3.84445e-06 4.67007e-05 0
1.64023e-06 2.84502e-05 0
1.92066e-06 4.66783e-05 0
1.2316e-06 1.3603e-05 0
1.64023e-06 2.84502e-05 0
3.84522e-19 1.35866e-05 0
5.84853e-19 2.84389e-05 0
1.64023e-06 2.84502e-05 0
1.92066e-06 4.66783e-05 0
5.84853e-19 2.84389e-05 0
7.97528e-19 4.66709e-05 0
7.71175e-06 4.67888e-05 0
8.39171e-06 6.71343e-05 0
5.77419e-06 4.67377e-05 0
6.28613e-06 6.7105e-05 0
8.39171e-06 6.71343e-05 0
8.74683e-06 8.8712e-05 0
6.28613e-06 6.7105e-05 0
6.55506e-06 8.86985e-05 0
5.77419e-06 4.67377e-05 0
6.28613e-06 6.7105e-05 0
3.84445e-06 4.67007e-05 0
4.18725e-06 6.7084e-05 0
6.28613e-06 6.7105e-05 0
6.55506e-06 8.86985e-05 0
4.18725e-06 6.7084e-05 0
4.3676e-06 8.86887e-05 0
8.74683e-06 8.8712e-05 0
8.88533e-06 0.000110845 0
6.55506e-06 8.86985e-05 0
6.66158e-06 0.000110841 0
8.88533e-06 0.000110845 0
8.91632e-06 0.000133128 0
6.66158e-06 0.000110841 0
6.68667e-06 0.000133127 0
6.55506e-06 8.86985e-05 0
6.66158e-06 0.000110841 0
4.3676e-06 8.86887e-05 0
4.43991e-06 0.000110838 0
6.66158e-06 0.000110841 0
6.68667e-06 0.000133127 0
4.43991e-06 0.000110838 0
4.45748e-06 0.000133126 0
3.84445e-06 4.67007e-05 0
4.18725e-06 6.7084e-05 0
1.92066e-06 4.66783e-05 0
2.09259e-06 6.70714e-05 0
4.18725e-06 6.7084e-05 0
4.3676e-06 8.86887e-05 0
2.09259e-06 6.70714e-05 0
2.18307e-06 8.86828e-05 0
1.92066e-06 4.66783e-05 0
2.09259e-06 6.70714e-05 0
7.97528e-19 4.66709e-05 0
8.92082e-19 6.70672e-05 0
2.09259e-06 6.70714e-05 0
2.18307e-06 8.86828e-05 0
8.92082e-19 6.70672e-05 0
9.88438e-19 8.86808e-05 0
4.3676e-06 8.86887e-05 0
4.43991e-06 0.000110838 0
2.18307e-06 8.86828e-05 0
2.21961e-06 0.000110836 0
4.43991e-06 0.000110838 0
4.45748e-06 0.000133126 0
2.21961e-06 0.000110836 0
2.22865e-06 0.000133126 0
2.18307e-06 8.86828e-05 0
2.21961e-06 0.000110836 0
9.88438e-19 8.86808e-05 0
1.2381e-18 0.000110835 0
2.21961e-06 0.000110836 0
2.22865e-06 0.000133126 0
1.2381e-18 0.000110835 0
1.24728e-18 0.000133126 0
0 0 0
1.63131e-19 3.63417e-06 0
0 0 0
-6.16504e-07 3.6606e-06 0
1.63131e-19 3.63417e-06 0
3.84522e-19 1.35866e-05 0
-6.16504e-07 3.6606e-06 0
-1.2316e-06 1.3603e-05 0
0 0 0
-6.16504e-07 3.6606e-06 0
0 0 0
-1.24482e-06 3.74017e-06 0
-6.16504e-07 3.6606e-06 0
-1.2316e-06 1.3603e-05 0
-1.24482e-06 3.74017e-06 0
-2.46645e-06 1.36517e-05 0
3.84522e-19 1.35866e-05 0
5.84853e-19 2.84389e-05 0
-1.2316e-06 1.3603e-05 0
-1.64023e-06 2.84502e-05 0
5.84853e-19 2.84389e-05 0
7.97528e-19 4.66709e-05 0
-1.64023e-06 2.84502e-05 0
-1.92066e-06 4.66783e-05 0
-1.2316e-06 1.3603e-05 0
-1.64023e-06 2.84502e-05 0
-2.46645e-06 1.36517e-05 0
-3.28381e-06 2.84841e-05 0
-1.64023e-06 2.84502e-05 0
-1.92066e-06 4.66783e-05 0
-3.28381e-06 2.84841e-05 0
-3.84445e-06 4.67007e-05 0
0 0 0
-1.24482e-06 3.74017e-06 0
0 0 0
-1.89882e-06 3.8737e-06 0
-1.24482e-06 3.74017e-06 0
-2.46645e-06 1.36517e-05 0
-1.89882e-06 3.8737e-06 0
-3.7061e-06 1.37315e-05 0
0 0 0
-1.89882e-06 3.8737e-06 0
0 0 0
-2.59724e-06 4.06241e-06 0
-1.89882e-06 3.8737e-06 0
-3.7061e-06 1.37315e-05 0
-2.59724e-06 4.06241e-06 0
-4.94778e-06 1.38404e-05 0
-2.46645e-06 1.36517e-05 0
-3.28381e-06 2.84841e-05 0
-3.7061e-06 1.37315e-05 0
-4.93491e-06 2.8541e-05 0
-3.28381e-06 2.84841e-05 0
-3.84445e-06 4.67007e-05 0
-4.93491e-06 2.8541e-05 0
-5.77419e-06 4.67377e-05 0
-3.7061e-06 1.37315e-05 0
-4.93491e-06 2.8541e-05 0
-4.94778e-06 1.38404e-05 0
-6.6e-06 2.86218e-05 0
-4.93491e-06 2.8541e-05 0
-5.77419e-06 4.67377e-05 0
-6.6e-06 2.86218e-05 0
-7.71175e-06 4.67888e-05 0
7.97528e-19 4.66709e-05 0
8.92082e-19 6.70672e-05 0
-1.92066e-06 4.66783e-05 0
-2.09259e-06 6.70714e-05 0
8.92082e-19 6.70672e-05 0
9.88438e-19 8.86808e-05 0
-2.09259e-06 6.70714e-05 0
-2.18307e-06 8.86828e-05 0
-1.92066e-06 4.66783e-05 0
-2.09259e-06 6.70714e-05 0
-3.84445e-06 4.67007e-05 0
-4.18725e-06 6.7084e-05 0
-2.09259e-06 6.70714e-05 0
-2.18307e-06 8.86828e-05 0
-4.18725e-06 6.7084e-05 0
-4.3676e-06 8.86887e-05 0
9.88438e-19 8.86808e-05 0
1.2381e-18 0.000110835 0
-2.18307e-06 8.86828e-05 0
-2.21961e-06 0.000110836 0
1.2381e-18 0.000110835 0
1.24728e-18 0.000133126 0
-2.21961e-06 0.000110836 0
-2.22865e-06 0.000133126 0
-2.18307e-06 8.86828e-05 0
-2.21961e-06 0.000110836 0
-4.3676e-06 8.86887e-05 0
-4.43991e-06 0.000110838 0
-2.21961e-06 0.000110836 0
-2.22865e-06 0.000133126 0
-4.43991e-06 0.000110838 0
-4.45748e-06 0.000133126 0
-3.84445e-06 4.67007e-05 0
-4.18725e-06 6.7084e-05 0
-5.77419e-06 4.67377e-05 0
-6.28613e-06 6.7105e-05 0
-4.18725e-06 6.7084e-05 0
-4.3676e-06 8.86887e-05 0
-6.28613e-06 6.7105e-05 0
-6.55506e-06 8.86985e-05 0
-5.77419e-06 4.67377e-05 0
-6.28613e-06 6.7105e-05 0
-7.71175e-06 4.67888e-05 0
-8.39171e-06 6.71343e-05 0
-6.28613e-06 6.7105e-05 0
-6.55506e-06 8.86985e-05 0
-8.39171e-06 6.71343e-05 0
-8.74683e-06 8.8712e-05 0
-4.3676e-06 8.86887e-05 0
-4.43991e-06 0.000110838 0
-6.55506e-06 8.86985e-05 0
-6.66158e-06 0.000110841 0
-4.43991e-06 0.000110838 0
-4.45748e-06 0.000133126 0
-6.66158e-06 0.000110841 0
-6.68667e-06 0.000133127 0
-6.55506e-06 8.86985e-05 0
-6.66158e-06 0.000110841 0
-8.74683e-06 8.8712e-05 0
-8.88533e-06 0.000110845 0
-6.66158e-06 0.000110841 0
-6.68667e-06 0.000133127 0
-8.88533e-06 0.000110845 0
-8.91632e-06 0.000133128 0
VECTORS velocity double
0 0 0
1.34637e-05 2.10928e-05 0
0 0 0
9.84166e-06 2.01154e-05 0
1.34637e-05 2.10928e-05 0
2.56096e-05 7.17487e-05 0
9.84166e-06 2.01154e-05 0
1.91823e-05 7.11874e-05 0
0 0 0
9.84166e-06 2.01154e-05 0
0 0 0
6.45126e-06 1.94239e-05 0
9.84166e-06 2.01154e-05 0
1.91823e-05 7.11874e-05 0
6.45126e-06 1.94239e-05 0
1.27658e-05 7.07756e-05 0
2.56096e-05 7.17487e-05 0
3.41147e-05 0.000148207 0
1.91823e-05 7.11874e-05 0
2.55077e-05 0.000147792 0
3.41147e-05 0.000148207 0
3.98153e-05 0.000242055 0
2.55077e-05 0.000147792 0
2.98119e-05 0.000241793 0
1.91823e-05 7.11874e-05 0
2.55077e-05 0.000147792 0
1.27658e-05 7.07756e-05 0
1.69734e-05 0.0001475 0
2.55077e-05 0.000147792 0
2.98119e-05 0.000241793 0
1.69734e-05 0.0001475 0
1.98487e-05 0.000241604 0
0 0 0
6.45126e-06 1.94239e-05 0
0 0 0
3.19482e-06 1.90119e-05 0
6.45126e-06 1.94239e-05 0
1.27658e-05 7.07756e-05 0
3.19482e-06 1.90119e-05 0
6.3744e-06 7.05245e-05 0
0 0 0
3.19482e-06 1.90119e-05 0
0 0 0
4.50821e-18 1.8875e-05 0
3.19482e-06 1.90119e-05 0
6.3744e-06 7.05245e-05 0
4.50821e-18 1.8875e-05 0
1.1424e-17 7.04402e-05 0
1.27658e-05 7.07756e-05 0
1.69734e-05 0.0001475 0
6.3744e-06 7.05245e-05 0
8.47801e-06 0.000147326 0
1.69734e-05 0.0001475 0
1.98487e-05 0.000241604 0
8.47801e-06 0.000147326 0
9.91632e-06 0.000241489 0
6.3744e-06 7.05245e-05 0
8.47801e-06 0.000147326 0
1.1424e-17 7.04402e-05 0
1.79143e-17 0.000147268 0
8.47801e-06 0.000147326 0
9.91632e-06 0.000241489 0
1.79143e-17 0.000147268 0
2.43001e-17 0.000241451 0
3.98153e-05 0.000242055 0
4.3288e-05 0.000347046 0
2.98119e-05 0.000241793 0
3.24268e-05 0.000346896 0
4.3288e-05 0.000347046 0
4.50943e-05 0.000458313 0
3.24268e-05 0.000346896 0
3.37949e-05 0.000458245 0
2.98119e-05 0.000241793 0
3.24268e-05 0.000346896 0
1.98487e-05 0.000241604 0
2.15999e-05 0.000346789 0
3.24268e-05 0.000346896 0
3.37949e-05 0.000458245 0
2.15999e-05 0.000346789 0
2.25175e-05 0.000458195 0
4.50943e-05 0.000458313 0
4.5796e-05 0.000572396 0
3.37949e-05 0.000458245 0
3.43347e-05 0.000572376 0
4.5796e-05 0.000572396 0
4.59524e-05 0.000687238 0
3.43347e-05 0.000572376 0
3.44614e-05 0.000687233 0
3.37949e-05 0.000458245 0
3.43347e-05 0.000572376 0
2.25175e-05 0.000458195 0
2.2884e-05 0.000572361 0
3.43347e-05 0.000572376 0
3.44614e-05 0.000687233 0
2.2884e-05 0.000572361 0
2.29727e-05 0.00068723 0
1.98487e-05 0.000241604 0
2.15999e-05 0.000346789 0
9.91632e-06 0.000241489 0
1.07946e-05 0.000346725 0
2.15999e-05 0.000346789 0
2.25175e-05 0.000458195 0
1.07946e-05 0.000346725 0
1.1255e-05 0.000458165 0
9.91632e-06 0.000241489 0
1.07946e-05 0.000346725 0
2.43001e-17 0.000241451 0
2.49445e-17 0.000346703 0
1.07946e-05 0.000346725 0
1.1255e-05 0.000458165 0
2.49445e-17 0.000346703 0
3.06431e-17 0.000458155 0
2.25175e-05 0.000458195 0
2.2884e-05 0.000572361 0
1.1255e-05 0.000458165 0
1.14402e-05 0.000572352 0
2.2884e-05 0.000572361 0
2.29727e-05 0.00068723 0
1.14402e-05 0.000572352 0
1.14859e-05 0.000687227 0
1.1255e-05 0.000458165 0
1.14402e-05 0.000572352 0
3.06431e-17 0.000458155 0
4.13673e-17 0.000572349 0
1.14402e-05 0.000572352 0
1.14859e-05 0.000687227 0
4.13673e-17 0.000572349 0
3.13583e-17 0.000687226 0
0 0 0
4.50821e-18 1.8875e-05 0
0 0 0
-3.19482e-06 1.90119e-05 0
4.50821e-18 1.8875e-05 0
1.1424e-17 7.04402e-05 0
-3.19482e-06 1.90119e-05 0
-6.3744e-06 7.05245e-05 0
0 0 0
-3.19482e-06 1.90119e-05 0
0 0 0
-6.45126e-06 1.94239e-05 0
-3.19482e-06 1.90119e-05 0
-6.3744e-06 7.05245e-05 0
-6.45126e-06 1.94239e-05 0
-1.27658e-05 7.07756e-05 0
1.1424e-17 7.04402e-05 0
1.79143e-17 0.000147268 0
-6.3744e-06 7.05245e-05 0
-8.47801e-06 0.000147326 0
1.79143e-17 0.000147268 0
2.43001e-17 0.000241451 0
-8.47801e-06 0.000147326 0
-9.91632e-06 0.000241489 0
-6.3744e-06 7.05245e-05 0
-8.47801e-06 0.000147326 0
-1.27658e-05 7.07756e-05 0
-1.69734e-05 0.0001475 0
-8.47801e-06 0.000147326 0
-9.91632e-06 0.000241489 0
-1.69734e-05 0.0001475 0
-1.98487e-05 0.000241604 0
0 0 0
-6.45126e-06 1.94239e-05 0
0 0 0
-9.84166e-06 2.01154e-05 0
-6.45126e-06 1.94239e-05 0
-1.27658e-05 7.07756e-05 0
-9.84166e-06 2.01154e-05 0
-1.91823e-05 7.11874e-05 0
0 0 0
-9.84166e-06 2.01154e-05 0
0 0 0
-1.34637e-05 2.10928e-05 0
-9.84166e-06 2.01154e-05 0
-1.91823e-05 7.11874e-05 0
-1.34637e-05 2.10928e-05 0
-2.56096e-05 7.17487e-05 0
-1.27658e-05 7.07756e-05 0
-1.69734e-05 0.0001475 0
-1.91823e-05 7.11874e-05 0
-2.55077e-05 0.000147792 0
-1.69734e-05 0.0001475 0
-1.98487e-05 0.000241604 0
-2.55077e-05 0.000147792 0
-2.98119e-05 0.000241793 0
-1.91823e-05 7.11874e-05 0
-2.55077e-05 0.000147792 0
-2.56096e-05 7.17487e-05 0
-3.41147e-05 0.000148207 0
-2.55077e-05 0.000147792 0
-2.98119e-05 0.000241793 0
-3.41147e-05 0.000148207 0
-3.98153e-05 0.000242055 0
2.43001e-17 0.000241451 0
2.49445e-17 0.000346703 0
-9.91632e-06 0.000241489 0
-1.07946e-05 0.000346725 0
2.49445e-17 0.000346703 0
3.06431e-17 0.000458155 0
-1.07946e-05 0.000346725 0
-1.1255e-05 0.000458165 0
-9.91632e-06 0.000241489 0
-1.07946e-05 0.000346725 0
-1.98487e-05 0.000241604 0
-2.15999e-05 0.000346789 0
-1.07946e-05 0.000346725 0
-1.1255e-05 0.000458165 0
-2.15999e-05 0.000346789 0
-2.25175e-05 0.000458195 0
3.06431e-17 0.000458155 0
4.13673e-17 0.000572349 0
-1.1255e-05 0.000458165 0
-1.14402e-05 0.000572352 0
4.13673e-17 0.000572349 0
3.13583e-17 0.000687226 0
-1.14402e-05 0.000572352 0
-1.14859e-05 0.000687227 0
-1.1255e-05 0.000458165 0
-1.14402e-05 0.000572352 0
-2.25175e-05 0.000458195 0
-2.2884e-05 0.000572361 0
-1.14402e-05 0.000572352 0
-1.14859e-05 0.000687227 0
-2.2884e-05 0.000572361 0
-2.29727e-05 0.00068723 0
-1.98487e-05 0.000241604 0
-2.15999e-05 0.000346789 0
-2.98119e-05 0.000241793 0
-3.24268e-05 0.000346896 0
-2.15999e-05 0.000346789 0
-2.25175e-05 0.000458195 0
-3.24268e-05 0.000346896 0
-3.37949e-05 0.000458245 0
-2.98119e-05 0.000241793 0
-3.24268e-05 0.000346896 0
-3.98153e-05 0.000242055 0
-4.3288e-05 0.000347046 0
-3.24268e-05 0.000346896 0
-3.37949e-05 0.000458245 0
-4.3288e-05 0.000347046 0
-4.50943e-05 0.000458313 0
-2.25175e-05 0.000458195 0
-2.2884e-05 0.000572361 0
-3.37949e-05 0.000458245 0
-3.43347e-05 0.000572376 0
-2.2884e-05 0.000572361 0
-2.29727e-05 0.00068723 0
-3.43347e-05 0.000572376 0
-3.44614e-05 0.000687233 0
-3.37949e-05 0.000458245 0
-3.43347e-05 0.000572376 0
-4.50943e-05 0.000458313 0
-4.5796e-05 0.000572396 0
-3.43347e-05 0.000572376 0
-3.44614e-05 0.000687233 0
-4.5796e-05 0.000572396 0
-4.59524e-05 0.000687238 0
