# vtk DataFile Version 3.0
#This file was generated by the deal.II library on 2025/3/10 at 16:31:56
ASCII
DATASET UNSTRUCTURED_GRID

FIELD FieldData 1
TIME 1 1 double
1.89377
POINTS 256 double
0 0 0
0.625 0 0
0 0.0625 0
0.625 0.0625 0
0.625 0 0
1.25 0 0
0.625 0.0625 0
1.25 0.0625 0
0 0.0625 0
0.625 0.0625 0
0 0.125 0
0.625 0.125 0
0.625 0.0625 0
1.25 0.0625 0
0.625 0.125 0
1.25 0.125 0
1.25 0 0
1.875 0 0
1.25 0.0625 0
1.875 0.0625 0
1.875 0 0
2.5 0 0
1.875 0.0625 0
2.5 0.0625 0
1.25 0.0625 0
1.875 0.0625 0
1.25 0.125 0
1.875 0.125 0
1.875 0.0625 0
2.5 0.0625 0
1.875 0.125 0
2.5 0.125 0
0 0.125 0
0.625 0.125 0
0 0.1875 0
0.625 0.1875 0
0.625 0.125 0
1.25 0.125 0
0.625 0.1875 0
1.25 0.1875 0
0 0.1875 0
0.625 0.1875 0
0 0.25 0
0.625 0.25 0
0.625 0.1875 0
1.25 0.1875 0
0.625 0.25 0
1.25 0.25 0
1.25 0.125 0
1.875 0.125 0
1.25 0.1875 0
1.875 0.1875 0
1.875 0.125 0
2.5 0.125 0
1.875 0.1875 0
2.5 0.1875 0
1.25 0.1875 0
1.875 0.1875 0
1.25 0.25 0
1.875 0.25 0
1.875 0.1875 0
2.5 0.1875 0
1.875 0.25 0
2.5 0.25 0
2.5 0 0
3.125 0 0
2.5 0.0625 0
3.125 0.0625 0
3.125 0 0
3.75 0 0
3.125 0.0625 0
3.75 0.0625 0
2.5 0.0625 0
3.125 0.0625 0
2.5 0.125 0
3.125 0.125 0
3.125 0.0625 0
3.75 0.0625 0
3.125 0.125 0
3.75 0.125 0
3.75 0 0
4.375 0 0
3.75 0.0625 0
4.375 0.0625 0
4.375 0 0
5 0 0
4.375 0.0625 0
5 0.0625 0
3.75 0.0625 0
4.375 0.0625 0
3.75 0.125 0
4.375 0.125 0
4.375 0.0625 0
5 0.0625 0
4.375 0.125 0
5 0.125 0
2.5 0.125 0
3.125 0.125 0
2.5 0.1875 0
3.125 0.1875 0
3.125 0.125 0
3.75 0.125 0
3.125 0.1875 0
3.75 0.1875 0
2.5 0.1875 0
3.125 0.1875 0
2.5 0.25 0
3.125 0.25 0
3.125 0.1875 0
3.75 0.1875 0
3.125 0.25 0
3.75 0.25 0
3.75 0.125 0
4.375 0.125 0
3.75 0.1875 0
4.375 0.1875 0
4.375 0.125 0
5 0.125 0
4.375 0.1875 0
5 0.1875 0
3.75 0.1875 0
4.375 0.1875 0
3.75 0.25 0
4.375 0.25 0
4.375 0.1875 0
5 0.1875 0
4.375 0.25 0
5 0.25 0
0 0.25 0
0.625 0.25 0
0 0.3125 0
0.625 0.3125 0
0.625 0.25 0
1.25 0.25 0
0.625 0.3125 0
1.25 0.3125 0
0 0.3125 0
0.625 0.3125 0
0 0.375 0
0.625 0.375 0
0.625 0.3125 0
1.25 0.3125 0
0.625 0.375 0
1.25 0.375 0
1.25 0.25 0
1.875 0.25 0
1.25 0.3125 0
1.875 0.3125 0
1.875 0.25 0
2.5 0.25 0
1.875 0.3125 0
2.5 0.3125 0
1.25 0.3125 0
1.875 0.3125 0
1.25 0.375 0
1.875 0.375 0
1.875 0.3125 0
2.5 0.3125 0
1.875 0.375 0
2.5 0.375 0
0 0.375 0
0.625 0.375 0
0 0.4375 0
0.625 0.4375 0
0.625 0.375 0
1.25 0.375 0
0.625 0.4375 0
1.25 0.4375 0
0 0.4375 0
0.625 0.4375 0
0 0.5 0
0.625 0.5 0
0.625 0.4375 0
1.25 0.4375 0
0.625 0.5 0
1.25 0.5 0
1.25 0.375 0
1.875 0.375 0
1.25 0.4375 0
1.875 0.4375 0
1.875 0.375 0
2.5 0.375 0
1.875 0.4375 0
2.5 0.4375 0
1.25 0.4375 0
1.875 0.4375 0
1.25 0.5 0
1.875 0.5 0
1.875 0.4375 0
2.5 0.4375 0
1.875 0.5 0
2.5 0.5 0
2.5 0.25 0
3.125 0.25 0
2.5 0.3125 0
3.125 0.3125 0
3.125 0.25 0
3.75 0.25 0
3.125 0.3125 0
3.75 0.3125 0
2.5 0.3125 0
3.125 0.3125 0
2.5 0.375 0
3.125 0.375 0
3.125 0.3125 0
3.75 0.3125 0
3.125 0.375 0
3.75 0.375 0
3.75 0.25 0
4.375 0.25 0
3.75 0.3125 0
4.375 0.3125 0
4.375 0.25 0
5 0.25 0
4.375 0.3125 0
5 0.3125 0
3.75 0.3125 0
4.375 0.3125 0
3.75 0.375 0
4.375 0.375 0
4.375 0.3125 0
5 0.3125 0
4.375 0.375 0
5 0.375 0
2.5 0.375 0
3.125 0.375 0
2.5 0.4375 0
3.125 0.4375 0
3.125 0.375 0
3.75 0.375 0
3.125 0.4375 0
3.75 0.4375 0
2.5 0.4375 0
3.125 0.4375 0
2.5 0.5 0
3.125 0.5 0
3.125 0.4375 0
3.75 0.4375 0
3.125 0.5 0
3.75 0.5 0
3.75 0.375 0
4.375 0.375 0
3.75 0.4375 0
4.375 0.4375 0
4.375 0.375 0
5 0.375 0
4.375 0.4375 0
5 0.4375 0
3.75 0.4375 0
4.375 0.4375 0
3.75 0.5 0
4.375 0.5 0
4.375 0.4375 0
5 0.4375 0
4.375 0.5 0
5 0.5 0

CELLS 64 320
4	0	1	3	2
4	4	5	7	6
4	8	9	11	10
4	12	13	15	14
4	16	17	19	18
4	20	21	23	22
4	24	25	27	26
4	28	29	31	30
4	32	33	35	34
4	36	37	39	38
4	40	41	43	42
4	44	45	47	46
4	48	49	51	50
4	52	53	55	54
4	56	57	59	58
4	60	61	63	62
4	64	65	67	66
4	68	69	71	70
4	72	73	75	74
4	76	77	79	78
4	80	81	83	82
4	84	85	87	86
4	88	89	91	90
4	92	93	95	94
4	96	97	99	98
4	100	101	103	102
4	104	105	107	106
4	108	109	111	110
4	112	113	115	114
4	116	117	119	118
4	120	121	123	122
4	124	125	127	126
4	128	129	131	130
4	132	133	135	134
4	136	137	139	138
4	140	141	143	142
4	144	145	147	146
4	148	149	151	150
4	152	153	155	154
4	156	157	159	158
4	160	161	163	162
4	164	165	167	166
4	168	169	171	170
4	172	173	175	174
4	176	177	179	178
4	180	181	183	182
4	184	185	187	186
4	188	189	191	190
4	192	193	195	194
4	196	197	199	198
4	200	201	203	202
4	204	205	207	206
4	208	209	211	210
4	212	213	215	214
4	216	217	219	218
4	220	221	223	222
4	224	225	227	226
4	228	229	231	230
4	232	233	235	234
4	236	237	239	238
4	240	241	243	242
4	244	245	247	246
4	248	249	251	250
4	252	253	255	254

CELL_TYPES 64
 9 9 9 9 9 9 9 9 9 9 9 9 9 9 9 9 9 9 9 9 9 9 9 9 9 9 9 9 9 9 9 9 9 9 9 9 9 9 9 9 9 9 9 9 9 9 9 9 9 9 9 9 9 9 9 9 9 9 9 9 9 9 9 9
POINT_DATA 256
VECTORS displacement double
0 0 0
1.35122e-05 2.1135e-05 0
0 0 0
9.87866e-06 2.01532e-05 0
1.35122e-05 2.1135e-05 0
2.57408e-05 7.2005e-05 0
9.87866e-06 2.01532e-05 0
1.9281e-05 7.14386e-05 0
0 0 0
9.87866e-06 2.01532e-05 0
0 0 0
6.4762e-06 1.94585e-05 0
9.87866e-06 2.01532e-05 0
1.9281e-05 7.14386e-05 0
6.4762e-06 1.94585e-05 0
1.28317e-05 7.10232e-05 0
2.57408e-05 7.2005e-05 0
3.43363e-05 0.000148905 0
1.9281e-05 7.14386e-05 0
2.56737e-05 0.000148485 0
3.43363e-05 0.000148905 0
4.01199e-05 0.000243418 0
2.56737e-05 0.000148485 0
3.00399e-05 0.000243152 0
1.9281e-05 7.14386e-05 0
2.56737e-05 0.000148485 0
1.28317e-05 7.10232e-05 0
1.70839e-05 0.000148189 0
2.56737e-05 0.000148485 0
3.00399e-05 0.000243152 0
1.70839e-05 0.000148189 0
2.00005e-05 0.00024296 0
0 0 0
6.4762e-06 1.94585e-05 0
0 0 0
3.20737e-06 1.90445e-05 0
6.4762e-06 1.94585e-05 0
1.28317e-05 7.10232e-05 0
3.20737e-06 1.90445e-05 0
6.40738e-06 7.07699e-05 0
0 0 0
3.20737e-06 1.90445e-05 0
0 0 0
-9.25669e-19 1.8907e-05 0
3.20737e-06 1.90445e-05 0
6.40738e-06 7.07699e-05 0
-9.25669e-19 1.8907e-05 0
-2.12869e-18 7.06848e-05 0
1.28317e-05 7.10232e-05 0
1.70839e-05 0.000148189 0
6.40738e-06 7.07699e-05 0
8.53325e-06 0.000148012 0
1.70839e-05 0.000148189 0
2.00005e-05 0.00024296 0
8.53325e-06 0.000148012 0
9.99214e-06 0.000242843 0
6.40738e-06 7.07699e-05 0
8.53325e-06 0.000148012 0
-2.12869e-18 7.06848e-05 0
-3.23044e-18 0.000147954 0
8.53325e-06 0.000148012 0
9.99214e-06 0.000242843 0
-3.23044e-18 0.000147954 0
-4.25502e-18 0.000242804 0
4.01199e-05 0.000243418 0
4.36572e-05 0.000349264 0
3.00399e-05 0.000243152 0
3.27031e-05 0.000349112 0
4.36572e-05 0.000349264 0
4.55046e-05 0.00046152 0
3.27031e-05 0.000349112 0
3.41021e-05 0.00046145 0
3.00399e-05 0.000243152 0
3.27031e-05 0.000349112 0
2.00005e-05 0.00024296 0
2.17839e-05 0.000349002 0
3.27031e-05 0.000349112 0
3.41021e-05 0.00046145 0
2.17839e-05 0.000349002 0
2.2722e-05 0.000461399 0
4.55046e-05 0.00046152 0
4.62251e-05 0.000576664 0
3.41021e-05 0.00046145 0
3.46562e-05 0.000576643 0
4.62251e-05 0.000576664 0
4.63863e-05 0.000692589 0
3.46562e-05 0.000576643 0
3.47868e-05 0.000692584 0
3.41021e-05 0.00046145 0
3.46562e-05 0.000576643 0
2.2722e-05 0.000461399 0
2.30982e-05 0.000576627 0
3.46562e-05 0.000576643 0
3.47868e-05 0.000692584 0
2.30982e-05 0.000576627 0
2.31896e-05 0.000692581 0
2.00005e-05 0.00024296 0
2.17839e-05 0.000349002 0
9.99214e-06 0.000242843 0
1.08865e-05 0.000348937 0
2.17839e-05 0.000349002 0
2.2722e-05 0.000461399 0
1.08865e-05 0.000348937 0
1.13572e-05 0.000461368 0
9.99214e-06 0.000242843 0
1.08865e-05 0.000348937 0
-4.25502e-18 0.000242804 0
-5.37834e-18 0.000348915 0
1.08865e-05 0.000348937 0
1.13572e-05 0.000461368 0
-5.37834e-18 0.000348915 0
-5.46866e-18 0.000461358 0
2.2722e-05 0.000461399 0
2.30982e-05 0.000576627 0
1.13572e-05 0.000461368 0
1.15473e-05 0.000576618 0
2.30982e-05 0.000576627 0
2.31896e-05 0.000692581 0
1.15473e-05 0.000576618 0
1.15943e-05 0.000692578 0
1.13572e-05 0.000461368 0
1.15473e-05 0.000576618 0
-5.46866e-18 0.000461358 0
-6.99473e-18 0.000576615 0
1.15473e-05 0.000576618 0
1.15943e-05 0.000692578 0
-6.99473e-18 0.000576615 0
-9.1646e-18 0.000692577 0
0 0 0
-9.25669e-19 1.8907e-05 0
0 0 0
-3.20737e-06 1.90445e-05 0
-9.25669e-19 1.8907e-05 0
-2.12869e-18 7.06848e-05 0
-3.20737e-06 1.90445e-05 0
-6.40738e-06 7.07699e-05 0
0 0 0
-3.20737e-06 1.90445e-05 0
0 0 0
-6.4762e-06 1.94585e-05 0
-3.20737e-06 1.90445e-05 0
-6.40738e-06 7.07699e-05 0
-6.4762e-06 1.94585e-05 0
-1.28317e-05 7.10232e-05 0
-2.12869e-18 7.06848e-05 0
-3.23044e-18 0.000147954 0
-6.40738e-06 7.07699e-05 0
-8.53325e-06 0.000148012 0
-3.23044e-18 0.000147954 0
-4.25502e-18 0.000242804 0
-8.53325e-06 0.000148012 0
-9.99214e-06 0.000242843 0
-6.40738e-06 7.07699e-05 0
-8.53325e-06 0.000148012 0
-1.28317e-05 7.10232e-05 0
-1.70839e-05 0.000148189 0
-8.53325e-06 0.000148012 0
-9.99214e-06 0.000242843 0
-1.70839e-05 0.000148189 0
-2.00005e-05 0.00024296 0
0 0 0
-6.4762e-06 1.94585e-05 0
0 0 0
-9.87866e-06 2.01532e-05 0
-6.4762e-06 1.94585e-05 0
-1.28317e-05 7.10232e-05 0
-9.87866e-06 2.01532e-05 0
-1.9281e-05 7.14386e-05 0
0 0 0
-9.87866e-06 2.01532e-05 0
0 0 0
-1.35122e-05 2.1135e-05 0
-9.87866e-06 2.01532e-05 0
-1.9281e-05 7.14386e-05 0
-1.35122e-05 2.1135e-05 0
-2.57408e-05 7.2005e-05 0
-1.28317e-05 7.10232e-05 0
-1.70839e-05 0.000148189 0
-1.9281e-05 7.14386e-05 0
-2.56737e-05 0.000148485 0
-1.70839e-05 0.000148189 0
-2.00005e-05 0.00024296 0
-2.56737e-05 0.000148485 0
-3.00399e-05 0.000243152 0
-1.9281e-05 7.14386e-05 0
-2.56737e-05 0.000148485 0
-2.57408e-05 7.2005e-05 0
-3.43363e-05 0.000148905 0
-2.56737e-05 0.000148485 0
-3.00399e-05 0.000243152 0
-3.43363e-05 0.000148905 0
-4.01199e-05 0.000243418 0
-4.25502e-18 0.000242804 0
-5.37834e-18 0.000348915 0
-9.99214e-06 0.000242843 0
-1.08865e-05 0.000348937 0
-5.37834e-18 0.000348915 0
-5.46866e-18 0.000461358 0
-1.08865e-05 0.000348937 0
-1.13572e-05 0.000461368 0
-9.99214e-06 0.000242843 0
-1.08865e-05 0.000348937 0
-2.00005e-05 0.00024296 0
-2.17839e-05 0.000349002 0
-1.08865e-05 0.000348937 0
-1.13572e-05 0.000461368 0
-2.17839e-05 0.000349002 0
-2.2722e-05 0.000461399 0
-5.46866e-18 0.000461358 0
-6.99473e-18 0.000576615 0
-1.13572e-05 0.000461368 0
-1.15473e-05 0.000576618 0
-6.99473e-18 0.000576615 0
-9.1646e-18 0.000692577 0
-1.15473e-05 0.000576618 0
-1.15943e-05 0.000692578 0
-1.13572e-05 0.000461368 0
-1.15473e-05 0.000576618 0
-2.2722e-05 0.000461399 0
-2.30982e-05 0.000576627 0
-1.15473e-05 0.000576618 0
-1.15943e-05 0.000692578 0
-2.30982e-05 0.000576627 0
-2.31896e-05 0.000692581 0
-2.00005e-05 0.00024296 0
-2.17839e-05 0.000349002 0
-3.00399e-05 0.000243152 0
-3.27031e-05 0.000349112 0
-2.17839e-05 0.000349002 0
-2.2722e-05 0.000461399 0
-3.27031e-05 0.000349112 0
-3.41021e-05 0.00046145 0
-3.00399e-05 0.000243152 0
-3.27031e-05 0.000349112 0
-4.01199e-05 0.000243418 0
-4.36572e-05 0.000349264 0
-3.27031e-05 0.000349112 0
-3.41021e-05 0.00046145 0
-4.36572e-05 0.000349264 0
-4.55046e-05 0.00046152 0
-2.2722e-05 0.000461399 0
-2.30982e-05 0.000576627 0
-3.41021e-05 0.00046145 0
-3.46562e-05 0.000576643 0
-2.30982e-05 0.000576627 0
-2.31896e-05 0.000692581 0
-3.46562e-05 0.000576643 0
-3.47868e-05 0.000692584 0
-3.41021e-05 0.00046145 0
-3.46562e-05 0.000576643 0
-4.55046e-05 0.00046152 0
-4.62251e-05 0.000576664 0
-3.46562e-05 0.000576643 0
-3.47868e-05 0.000692584 0
-4.62251e-05 0.000576664 0
-4.63863e-05 0.000692589 0
VECTORS velocity double
0 0 0
-4.35681e-06 -6.81466e-06 0
0 0 0
-3.18523e-06 -6.4981e-06 0
-4.35681e-06 -6.81466e-06 0
-8.29973e-06 -2.32169e-05 0
-3.18523e-06 -6.4981e-06 0
-6.21685e-06 -2.30343e-05 0
0 0 0
-3.18523e-06 -6.4981e-06 0
0 0 0
-2.08816e-06 -6.2741e-06 0
-3.18523e-06 -6.4981e-06 0
-6.21685e-06 -2.30343e-05 0
-2.08816e-06 -6.2741e-06 0
-4.13739e-06 -2.29004e-05 0
-8.29973e-06 -2.32169e-05 0
-1.10712e-05 -4.80121e-05 0
-6.21685e-06 -2.30343e-05 0
-8.27807e-06 -4.78766e-05 0
-1.10712e-05 -4.80121e-05 0
-1.2936e-05 -7.84864e-05 0
-8.27807e-06 -4.78766e-05 0
-9.68587e-06 -7.84006e-05 0
-6.21685e-06 -2.30343e-05 0
-8.27807e-06 -4.78766e-05 0
-4.13739e-06 -2.29004e-05 0
-5.50844e-06 -4.77812e-05 0
-8.27807e-06 -4.78766e-05 0
-9.68587e-06 -7.84006e-05 0
-5.50844e-06 -4.77812e-05 0
-6.44885e-06 -7.83386e-05 0
0 0 0
-2.08816e-06 -6.2741e-06 0
0 0 0
-1.03417e-06 -6.14063e-06 0
-2.08816e-06 -6.2741e-06 0
-4.13739e-06 -2.29004e-05 0
-1.03417e-06 -6.14063e-06 0
-2.06596e-06 -2.28187e-05 0
0 0 0
-1.03417e-06 -6.14063e-06 0
0 0 0
-1.35174e-17 -6.0963e-06 0
-1.03417e-06 -6.14063e-06 0
-2.06596e-06 -2.28187e-05 0
-1.35174e-17 -6.0963e-06 0
-2.7393e-17 -2.27913e-05 0
-4.13739e-06 -2.29004e-05 0
-5.50844e-06 -4.77812e-05 0
-2.06596e-06 -2.28187e-05 0
-2.75141e-06 -4.77243e-05 0
-5.50844e-06 -4.77812e-05 0
-6.44885e-06 -7.83386e-05 0
-2.75141e-06 -4.77243e-05 0
-3.22181e-06 -7.83011e-05 0
-2.06596e-06 -2.28187e-05 0
-2.75141e-06 -4.77243e-05 0
-2.7393e-17 -2.27913e-05 0
-4.40714e-17 -4.77054e-05 0
-2.75141e-06 -4.77243e-05 0
-3.22181e-06 -7.83011e-05 0
-4.40714e-17 -4.77054e-05 0
-6.20314e-17 -7.82885e-05 0
-1.2936e-05 -7.84864e-05 0
-1.40766e-05 -0.000112615 0
-9.68587e-06 -7.84006e-05 0
-1.05446e-05 -0.000112566 0
-1.40766e-05 -0.000112615 0
-1.46722e-05 -0.00014881 0
-1.05446e-05 -0.000112566 0
-1.09957e-05 -0.000148787 0
-9.68587e-06 -7.84006e-05 0
-1.05446e-05 -0.000112566 0
-6.44885e-06 -7.83386e-05 0
-7.02386e-06 -0.00011253 0
-1.05446e-05 -0.000112566 0
-1.09957e-05 -0.000148787 0
-7.02386e-06 -0.00011253 0
-7.32635e-06 -0.000148771 0
-1.46722e-05 -0.00014881 0
-1.49045e-05 -0.000185936 0
-1.09957e-05 -0.000148787 0
-1.11743e-05 -0.000185929 0
-1.49045e-05 -0.000185936 0
-1.49565e-05 -0.000223314 0
-1.11743e-05 -0.000185929 0
-1.12164e-05 -0.000223313 0
-1.09957e-05 -0.000148787 0
-1.11743e-05 -0.000185929 0
-7.32635e-06 -0.000148771 0
-7.44763e-06 -0.000185924 0
-1.11743e-05 -0.000185929 0
-1.12164e-05 -0.000223313 0
-7.44763e-06 -0.000185924 0
-7.47711e-06 -0.000223312 0
-6.44885e-06 -7.83386e-05 0
-7.02386e-06 -0.00011253 0
-3.22181e-06 -7.83011e-05 0
-3.51019e-06 -0.000112509 0
-7.02386e-06 -0.00011253 0
-7.32635e-06 -0.000148771 0
-3.51019e-06 -0.000112509 0
-3.66195e-06 -0.000148761 0
-3.22181e-06 -7.83011e-05 0
-3.51019e-06 -0.000112509 0
-6.20314e-17 -7.82885e-05 0
-8.41736e-17 -0.000112502 0
-3.51019e-06 -0.000112509 0
-3.66195e-06 -0.000148761 0
-8.41736e-17 -0.000112502 0
-5.17109e-17 -0.000148758 0
-7.32635e-06 -0.000148771 0
-7.44763e-06 -0.000185924 0
-3.66195e-06 -0.000148761 0
-3.72323e-06 -0.000185921 0
-7.44763e-06 -0.000185924 0
-7.47711e-06 -0.000223312 0
-3.72323e-06 -0.000185921 0
-3.7384e-06 -0.000223311 0
-3.66195e-06 -0.000148761 0
-3.72323e-06 -0.000185921 0
-5.17109e-17 -0.000148758 0
-9.23412e-17 -0.00018592 0
-3.72323e-06 -0.000185921 0
-3.7384e-06 -0.000223311 0
-9.23412e-17 -0.00018592 0
-2.51111e-16 -0.00022331 0
0 0 0
-1.35174e-17 -6.0963e-06 0
0 0 0
1.03417e-06 -6.14063e-06 0
-1.35174e-17 -6.0963e-06 0
-2.7393e-17 -2.27913e-05 0
1.03417e-06 -6.14063e-06 0
2.06596e-06 -2.28187e-05 0
0 0 0
1.03417e-06 -6.14063e-06 0
0 0 0
2.08816e-06 -6.2741e-06 0
1.03417e-06 -6.14063e-06 0
2.06596e-06 -2.28187e-05 0
2.08816e-06 -6.2741e-06 0
4.13739e-06 -2.29004e-05 0
-2.7393e-17 -2.27913e-05 0
-4.40714e-17 -4.77054e-05 0
2.06596e-06 -2.28187e-05 0
2.75141e-06 -4.77243e-05 0
-4.40714e-17 -4.77054e-05 0
-6.20314e-17 -7.82885e-05 0
2.75141e-06 -4.77243e-05 0
3.22181e-06 -7.83011e-05 0
2.06596e-06 -2.28187e-05 0
2.75141e-06 -4.77243e-05 0
4.13739e-06 -2.29004e-05 0
5.50844e-06 -4.77812e-05 0
2.75141e-06 -4.77243e-05 0
3.22181e-06 -7.83011e-05 0
5.50844e-06 -4.77812e-05 0
6.44885e-06 -7.83386e-05 0
0 0 0
2.08816e-06 -6.2741e-06 0
0 0 0
3.18523e-06 -6.4981e-06 0
2.08816e-06 -6.2741e-06 0
4.13739e-06 -2.29004e-05 0
3.18523e-06 -6.4981e-06 0
6.21685e-06 -2.30343e-05 0
0 0 0
3.18523e-06 -6.4981e-06 0
0 0 0
4.35681e-06 -6.81466e-06 0
3.18523e-06 -6.4981e-06 0
6.21685e-06 -2.30343e-05 0
4.35681e-06 -6.81466e-06 0
8.29973e-06 -2.32169e-05 0
4.13739e-06 -2.29004e-05 0
5.50844e-06 -4.77812e-05 0
6.21685e-06 -2.30343e-05 0
8.27807e-06 -4.78766e-05 0
5.50844e-06 -4.77812e-05 0
6.44885e-06 -7.83386e-05 0
8.27807e-06 -4.78766e-05 0
9.68587e-06 -7.84006e-05 0
6.21685e-06 -2.30343e-05 0
8.27807e-06 -4.78766e-05 0
8.29973e-06 -2.32169e-05 0
1.10712e-05 -4.80121e-05 0
8.27807e-06 -4.78766e-05 0
9.68587e-06 -7.84006e-05 0
1.10712e-05 -4.80121e-05 0
1.2936e-05 -7.84864e-05 0
-6.20314e-17 -7.82885e-05 0
-8.41736e-17 -0.000112502 0
3.22181e-06 -7.83011e-05 0
3.51019e-06 -0.000112509 0
-8.41736e-17 -0.000112502 0
-5.17109e-17 -0.000148758 0
3.51019e-06 -0.000112509 0
3.66195e-06 -0.000148761 0
3.22181e-06 -7.83011e-05 0
3.51019e-06 -0.000112509 0
6.44885e-06 -7.83386e-05 0
7.02386e-06 -0.00011253 0
3.51019e-06 -0.000112509 0
3.66195e-06 -0.000148761 0
7.02386e-06 -0.00011253 0
7.32635e-06 -0.000148771 0
-5.17109e-17 -0.000148758 0
-9.23412e-17 -0.00018592 0
3.66195e-06 -0.000148761 0
3.72323e-06 -0.000185921 0
-9.23412e-17 -0.00018592 0
-2.51111e-16 -0.00022331 0
3.72323e-06 -0.000185921 0
3.7384e-06 -0.000223311 0
3.66195e-06 -0.000148761 0
3.72323e-06 -0.000185921 0
7.32635e-06 -0.000148771 0
7.44763e-06 -0.000185924 0
3.72323e-06 -0.000185921 0
3.7384e-06 -0.000223311 0
7.44763e-06 -0.000185924 0
7.47711e-06 -0.000223312 0
6.44885e-06 -7.83386e-05 0
7.02386e-06 -0.00011253 0
9.68587e-06 -7.84006e-05 0
1.05446e-05 -0.000112566 0
7.02386e-06 -0.00011253 0
7.32635e-06 -0.000148771 0
1.05446e-05 -0.000112566 0
1.09957e-05 -0.000148787 0
9.68587e-06 -7.84006e-05 0
1.05446e-05 -0.000112566 0
1.2936e-05 -7.84864e-05 0
1.40766e-05 -0.000112615 0
1.05446e-05 -0.000112566 0
1.09957e-05 -0.000148787 0
1.40766e-05 -0.000112615 0
1.46722e-05 -0.00014881 0
7.32635e-06 -0.000148771 0
7.44763e-06 -0.000185924 0
1.09957e-05 -0.000148787 0
1.11743e-05 -0.000185929 0
7.44763e-06 -0.000185924 0
7.47711e-06 -0.000223312 0
1.11743e-05 -0.000185929 0
1.12164e-05 -0.000223313 0
1.09957e-05 -0.000148787 0
1.11743e-05 -0.000185929 0
1.46722e-05 -0.00014881 0
1.49045e-05 -0.000185936 0
1.11743e-05 -0.000185929 0
1.12164e-05 -0.000223313 0
1.49045e-05 -0.000185936 0
1.49565e-05 -0.000223314 0
