# vtk DataFile Version 3.0
#This file was generated by the deal.II library on 2025/3/27 at 12:14:17
ASCII
DATASET UNSTRUCTURED_GRID

FIELD FieldData 1
TIME 1 1 double
3.21875
POINTS 64 double
0 0 0
0.03125 0 0
0.03125 0 0
0.0625 0 0
0.0625 0 0
0.09375 0 0
0.09375 0 0
0.125 0 0
0.125 0 0
0.15625 0 0
0.15625 0 0
0.1875 0 0
0.1875 0 0
0.21875 0 0
0.21875 0 0
0.25 0 0
0.25 0 0
0.28125 0 0
0.28125 0 0
0.3125 0 0
0.3125 0 0
0.34375 0 0
0.34375 0 0
0.375 0 0
0.375 0 0
0.40625 0 0
0.40625 0 0
0.4375 0 0
0.4375 0 0
0.46875 0 0
0.46875 0 0
0.5 0 0
0.5 0 0
0.53125 0 0
0.53125 0 0
0.5625 0 0
0.5625 0 0
0.59375 0 0
0.59375 0 0
0.625 0 0
0.625 0 0
0.65625 0 0
0.65625 0 0
0.6875 0 0
0.6875 0 0
0.71875 0 0
0.71875 0 0
0.75 0 0
0.75 0 0
0.78125 0 0
0.78125 0 0
0.8125 0 0
0.8125 0 0
0.84375 0 0
0.84375 0 0
0.875 0 0
0.875 0 0
0.90625 0 0
0.90625 0 0
0.9375 0 0
0.9375 0 0
0.96875 0 0
0.96875 0 0
1 0 0

CELLS 32 96
2	0	1
2	2	3
2	4	5
2	6	7
2	8	9
2	10	11
2	12	13
2	14	15
2	16	17
2	18	19
2	20	21
2	22	23
2	24	25
2	26	27
2	28	29
2	30	31
2	32	33
2	34	35
2	36	37
2	38	39
2	40	41
2	42	43
2	44	45
2	46	47
2	48	49
2	50	51
2	52	53
2	54	55
2	56	57
2	58	59
2	60	61
2	62	63

CELL_TYPES 32
 3 3 3 3 3 3 3 3 3 3 3 3 3 3 3 3 3 3 3 3 3 3 3 3 3 3 3 3 3 3 3 3
POINT_DATA 64
VECTORS displacement double
0 0 0
-0.00826891 0 0
-0.00826891 0 0
-0.0164582 0 0
-0.0164582 0 0
-0.024489 0 0
-0.024489 0 0
-0.0322839 0 0
-0.0322839 0 0
-0.0397679 0 0
-0.0397679 0 0
-0.0468689 0 0
-0.0468689 0 0
-0.0535186 0 0
-0.0535186 0 0
-0.0596528 0 0
-0.0596528 0 0
-0.0652126 0 0
-0.0652126 0 0
-0.0701443 0 0
-0.0701443 0 0
-0.0744005 0 0
-0.0744005 0 0
-0.0779402 0 0
-0.0779402 0 0
-0.0807293 0 0
-0.0807293 0 0
-0.0827409 0 0
-0.0827409 0 0
-0.0839556 0 0
-0.0839556 0 0
-0.0843619 0 0
-0.0843619 0 0
-0.0839556 0 0
-0.0839556 0 0
-0.0827409 0 0
-0.0827409 0 0
-0.0807293 0 0
-0.0807293 0 0
-0.0779402 0 0
-0.0779402 0 0
-0.0744005 0 0
-0.0744005 0 0
-0.0701443 0 0
-0.0701443 0 0
-0.0652126 0 0
-0.0652126 0 0
-0.0596528 0 0
-0.0596528 0 0
-0.0535186 0 0
-0.0535186 0 0
-0.0468689 0 0
-0.0468689 0 0
-0.0397679 0 0
-0.0397679 0 0
-0.0322839 0 0
-0.0322839 0 0
-0.024489 0 0
-0.024489 0 0
-0.0164582 0 0
-0.0164582 0 0
-0.00826891 0 0
-0.00826891 0 0
0 0 0
VECTORS velocity double
0 0 0
-0.0958705 0 0
-0.0958705 0 0
-0.190818 0 0
-0.190818 0 0
-0.283927 0 0
-0.283927 0 0
-0.374302 0 0
-0.374302 0 0
-0.461073 0 0
-0.461073 0 0
-0.543403 0 0
-0.543403 0 0
-0.6205 0 0
-0.6205 0 0
-0.691621 0 0
-0.691621 0 0
-0.756081 0 0
-0.756081 0 0
-0.81326 0 0
-0.81326 0 0
-0.862607 0 0
-0.862607 0 0
-0.903646 0 0
-0.903646 0 0
-0.935983 0 0
-0.935983 0 0
-0.959305 0 0
-0.959305 0 0
-0.973389 0 0
-0.973389 0 0
-0.978099 0 0
-0.978099 0 0
-0.973389 0 0
-0.973389 0 0
-0.959305 0 0
-0.959305 0 0
-0.935983 0 0
-0.935983 0 0
-0.903646 0 0
-0.903646 0 0
-0.862607 0 0
-0.862607 0 0
-0.81326 0 0
-0.81326 0 0
-0.756081 0 0
-0.756081 0 0
-0.691621 0 0
-0.691621 0 0
-0.6205 0 0
-0.6205 0 0
-0.543403 0 0
-0.543403 0 0
-0.461073 0 0
-0.461073 0 0
-0.374302 0 0
-0.374302 0 0
-0.283927 0 0
-0.283927 0 0
-0.190818 0 0
-0.190818 0 0
-0.0958705 0 0
-0.0958705 0 0
0 0 0
