# vtk DataFile Version 3.0
#This file was generated by the deal.II library on 2025/4/1 at 13:00:11
ASCII
DATASET UNSTRUCTURED_GRID

FIELD FieldData 1
TIME 1 1 double
1.63281
POINTS 64 double
0 0 0
0.03125 0 0
0.03125 0 0
0.0625 0 0
0.0625 0 0
0.09375 0 0
0.09375 0 0
0.125 0 0
0.125 0 0
0.15625 0 0
0.15625 0 0
0.1875 0 0
0.1875 0 0
0.21875 0 0
0.21875 0 0
0.25 0 0
0.25 0 0
0.28125 0 0
0.28125 0 0
0.3125 0 0
0.3125 0 0
0.34375 0 0
0.34375 0 0
0.375 0 0
0.375 0 0
0.40625 0 0
0.40625 0 0
0.4375 0 0
0.4375 0 0
0.46875 0 0
0.46875 0 0
0.5 0 0
0.5 0 0
0.53125 0 0
0.53125 0 0
0.5625 0 0
0.5625 0 0
0.59375 0 0
0.59375 0 0
0.625 0 0
0.625 0 0
0.65625 0 0
0.65625 0 0
0.6875 0 0
0.6875 0 0
0.71875 0 0
0.71875 0 0
0.75 0 0
0.75 0 0
0.78125 0 0
0.78125 0 0
0.8125 0 0
0.8125 0 0
0.84375 0 0
0.84375 0 0
0.875 0 0
0.875 0 0
0.90625 0 0
0.90625 0 0
0.9375 0 0
0.9375 0 0
0.96875 0 0
0.96875 0 0
1 0 0

CELLS 32 96
2	0	1
2	2	3
2	4	5
2	6	7
2	8	9
2	10	11
2	12	13
2	14	15
2	16	17
2	18	19
2	20	21
2	22	23
2	24	25
2	26	27
2	28	29
2	30	31
2	32	33
2	34	35
2	36	37
2	38	39
2	40	41
2	42	43
2	44	45
2	46	47
2	48	49
2	50	51
2	52	53
2	54	55
2	56	57
2	58	59
2	60	61
2	62	63

CELL_TYPES 32
 3 3 3 3 3 3 3 3 3 3 3 3 3 3 3 3 3 3 3 3 3 3 3 3 3 3 3 3 3 3 3 3
POINT_DATA 64
VECTORS displacement double
0 0 0
0.0302122 0 0
0.0302122 0 0
0.0584751 0 0
0.0584751 0 0
0.0847888 0 0
0.0847888 0 0
0.109153 0 0
0.109153 0 0
0.131569 0 0
0.131569 0 0
0.152035 0 0
0.152035 0 0
0.170552 0 0
0.170552 0 0
0.18712 0 0
0.18712 0 0
0.201738 0 0
0.201738 0 0
0.214408 0 0
0.214408 0 0
0.225128 0 0
0.225128 0 0
0.233899 0 0
0.233899 0 0
0.240721 0 0
0.240721 0 0
0.245594 0 0
0.245594 0 0
0.248518 0 0
0.248518 0 0
0.249492 0 0
0.249492 0 0
0.248518 0 0
0.248518 0 0
0.245594 0 0
0.245594 0 0
0.240721 0 0
0.240721 0 0
0.233899 0 0
0.233899 0 0
0.225128 0 0
0.225128 0 0
0.214408 0 0
0.214408 0 0
0.201738 0 0
0.201738 0 0
0.18712 0 0
0.18712 0 0
0.170552 0 0
0.170552 0 0
0.152035 0 0
0.152035 0 0
0.131569 0 0
0.131569 0 0
0.109153 0 0
0.109153 0 0
0.0847888 0 0
0.0847888 0 0
0.0584751 0 0
0.0584751 0 0
0.0302122 0 0
0.0302122 0 0
0 0 0
VECTORS velocity double
0 0 0
-0.00187543 0 0
-0.00187543 0 0
-0.00362981 0 0
-0.00362981 0 0
-0.00526315 0 0
-0.00526315 0 0
-0.00677545 0 0
-0.00677545 0 0
-0.00816672 0 0
-0.00816672 0 0
-0.00943698 0 0
-0.00943698 0 0
-0.0105862 0 0
-0.0105862 0 0
-0.0116144 0 0
-0.0116144 0 0
-0.0125215 0 0
-0.0125215 0 0
-0.0133075 0 0
-0.0133075 0 0
-0.0139726 0 0
-0.0139726 0 0
-0.0145166 0 0
-0.0145166 0 0
-0.0149398 0 0
-0.0149398 0 0
-0.015242 0 0
-0.015242 0 0
-0.0154234 0 0
-0.0154234 0 0
-0.0154838 0 0
-0.0154838 0 0
-0.0154234 0 0
-0.0154234 0 0
-0.015242 0 0
-0.015242 0 0
-0.0149398 0 0
-0.0149398 0 0
-0.0145166 0 0
-0.0145166 0 0
-0.0139726 0 0
-0.0139726 0 0
-0.0133075 0 0
-0.0133075 0 0
-0.0125215 0 0
-0.0125215 0 0
-0.0116144 0 0
-0.0116144 0 0
-0.0105862 0 0
-0.0105862 0 0
-0.00943698 0 0
-0.00943698 0 0
-0.00816672 0 0
-0.00816672 0 0
-0.00677545 0 0
-0.00677545 0 0
-0.00526315 0 0
-0.00526315 0 0
-0.00362981 0 0
-0.00362981 0 0
-0.00187543 0 0
-0.00187543 0 0
0 0 0
