# vtk DataFile Version 3.0
#This file was generated by the deal.II library on 2025/4/1 at 13:03:27
ASCII
DATASET UNSTRUCTURED_GRID

FIELD FieldData 1
TIME 1 1 double
1.82812
POINTS 256 double
0 0 0
0.0078125 0 0
0.0078125 0 0
0.015625 0 0
0.015625 0 0
0.0234375 0 0
0.0234375 0 0
0.03125 0 0
0.03125 0 0
0.0390625 0 0
0.0390625 0 0
0.046875 0 0
0.046875 0 0
0.0546875 0 0
0.0546875 0 0
0.0625 0 0
0.0625 0 0
0.0703125 0 0
0.0703125 0 0
0.078125 0 0
0.078125 0 0
0.0859375 0 0
0.0859375 0 0
0.09375 0 0
0.09375 0 0
0.101562 0 0
0.101562 0 0
0.109375 0 0
0.109375 0 0
0.117188 0 0
0.117188 0 0
0.125 0 0
0.125 0 0
0.132812 0 0
0.132812 0 0
0.140625 0 0
0.140625 0 0
0.148438 0 0
0.148438 0 0
0.15625 0 0
0.15625 0 0
0.164062 0 0
0.164062 0 0
0.171875 0 0
0.171875 0 0
0.179688 0 0
0.179688 0 0
0.1875 0 0
0.1875 0 0
0.195312 0 0
0.195312 0 0
0.203125 0 0
0.203125 0 0
0.210938 0 0
0.210938 0 0
0.21875 0 0
0.21875 0 0
0.226562 0 0
0.226562 0 0
0.234375 0 0
0.234375 0 0
0.242188 0 0
0.242188 0 0
0.25 0 0
0.25 0 0
0.257812 0 0
0.257812 0 0
0.265625 0 0
0.265625 0 0
0.273438 0 0
0.273438 0 0
0.28125 0 0
0.28125 0 0
0.289062 0 0
0.289062 0 0
0.296875 0 0
0.296875 0 0
0.304688 0 0
0.304688 0 0
0.3125 0 0
0.3125 0 0
0.320312 0 0
0.320312 0 0
0.328125 0 0
0.328125 0 0
0.335938 0 0
0.335938 0 0
0.34375 0 0
0.34375 0 0
0.351562 0 0
0.351562 0 0
0.359375 0 0
0.359375 0 0
0.367188 0 0
0.367188 0 0
0.375 0 0
0.375 0 0
0.382812 0 0
0.382812 0 0
0.390625 0 0
0.390625 0 0
0.398438 0 0
0.398438 0 0
0.40625 0 0
0.40625 0 0
0.414062 0 0
0.414062 0 0
0.421875 0 0
0.421875 0 0
0.429688 0 0
0.429688 0 0
0.4375 0 0
0.4375 0 0
0.445312 0 0
0.445312 0 0
0.453125 0 0
0.453125 0 0
0.460938 0 0
0.460938 0 0
0.46875 0 0
0.46875 0 0
0.476562 0 0
0.476562 0 0
0.484375 0 0
0.484375 0 0
0.492188 0 0
0.492188 0 0
0.5 0 0
0.5 0 0
0.507812 0 0
0.507812 0 0
0.515625 0 0
0.515625 0 0
0.523438 0 0
0.523438 0 0
0.53125 0 0
0.53125 0 0
0.539062 0 0
0.539062 0 0
0.546875 0 0
0.546875 0 0
0.554688 0 0
0.554688 0 0
0.5625 0 0
0.5625 0 0
0.570312 0 0
0.570312 0 0
0.578125 0 0
0.578125 0 0
0.585938 0 0
0.585938 0 0
0.59375 0 0
0.59375 0 0
0.601562 0 0
0.601562 0 0
0.609375 0 0
0.609375 0 0
0.617188 0 0
0.617188 0 0
0.625 0 0
0.625 0 0
0.632812 0 0
0.632812 0 0
0.640625 0 0
0.640625 0 0
0.648438 0 0
0.648438 0 0
0.65625 0 0
0.65625 0 0
0.664062 0 0
0.664062 0 0
0.671875 0 0
0.671875 0 0
0.679688 0 0
0.679688 0 0
0.6875 0 0
0.6875 0 0
0.695312 0 0
0.695312 0 0
0.703125 0 0
0.703125 0 0
0.710938 0 0
0.710938 0 0
0.71875 0 0
0.71875 0 0
0.726562 0 0
0.726562 0 0
0.734375 0 0
0.734375 0 0
0.742188 0 0
0.742188 0 0
0.75 0 0
0.75 0 0
0.757812 0 0
0.757812 0 0
0.765625 0 0
0.765625 0 0
0.773438 0 0
0.773438 0 0
0.78125 0 0
0.78125 0 0
0.789062 0 0
0.789062 0 0
0.796875 0 0
0.796875 0 0
0.804688 0 0
0.804688 0 0
0.8125 0 0
0.8125 0 0
0.820312 0 0
0.820312 0 0
0.828125 0 0
0.828125 0 0
0.835938 0 0
0.835938 0 0
0.84375 0 0
0.84375 0 0
0.851562 0 0
0.851562 0 0
0.859375 0 0
0.859375 0 0
0.867188 0 0
0.867188 0 0
0.875 0 0
0.875 0 0
0.882812 0 0
0.882812 0 0
0.890625 0 0
0.890625 0 0
0.898438 0 0
0.898438 0 0
0.90625 0 0
0.90625 0 0
0.914062 0 0
0.914062 0 0
0.921875 0 0
0.921875 0 0
0.929688 0 0
0.929688 0 0
0.9375 0 0
0.9375 0 0
0.945312 0 0
0.945312 0 0
0.953125 0 0
0.953125 0 0
0.960938 0 0
0.960938 0 0
0.96875 0 0
0.96875 0 0
0.976562 0 0
0.976562 0 0
0.984375 0 0
0.984375 0 0
0.992188 0 0
0.992188 0 0
1 0 0

CELLS 128 384
2	0	1
2	2	3
2	4	5
2	6	7
2	8	9
2	10	11
2	12	13
2	14	15
2	16	17
2	18	19
2	20	21
2	22	23
2	24	25
2	26	27
2	28	29
2	30	31
2	32	33
2	34	35
2	36	37
2	38	39
2	40	41
2	42	43
2	44	45
2	46	47
2	48	49
2	50	51
2	52	53
2	54	55
2	56	57
2	58	59
2	60	61
2	62	63
2	64	65
2	66	67
2	68	69
2	70	71
2	72	73
2	74	75
2	76	77
2	78	79
2	80	81
2	82	83
2	84	85
2	86	87
2	88	89
2	90	91
2	92	93
2	94	95
2	96	97
2	98	99
2	100	101
2	102	103
2	104	105
2	106	107
2	108	109
2	110	111
2	112	113
2	114	115
2	116	117
2	118	119
2	120	121
2	122	123
2	124	125
2	126	127
2	128	129
2	130	131
2	132	133
2	134	135
2	136	137
2	138	139
2	140	141
2	142	143
2	144	145
2	146	147
2	148	149
2	150	151
2	152	153
2	154	155
2	156	157
2	158	159
2	160	161
2	162	163
2	164	165
2	166	167
2	168	169
2	170	171
2	172	173
2	174	175
2	176	177
2	178	179
2	180	181
2	182	183
2	184	185
2	186	187
2	188	189
2	190	191
2	192	193
2	194	195
2	196	197
2	198	199
2	200	201
2	202	203
2	204	205
2	206	207
2	208	209
2	210	211
2	212	213
2	214	215
2	216	217
2	218	219
2	220	221
2	222	223
2	224	225
2	226	227
2	228	229
2	230	231
2	232	233
2	234	235
2	236	237
2	238	239
2	240	241
2	242	243
2	244	245
2	246	247
2	248	249
2	250	251
2	252	253
2	254	255

CELL_TYPES 128
 3 3 3 3 3 3 3 3 3 3 3 3 3 3 3 3 3 3 3 3 3 3 3 3 3 3 3 3 3 3 3 3 3 3 3 3 3 3 3 3 3 3 3 3 3 3 3 3 3 3 3 3 3 3 3 3 3 3 3 3 3 3 3 3 3 3 3 3 3 3 3 3 3 3 3 3 3 3 3 3 3 3 3 3 3 3 3 3 3 3 3 3 3 3 3 3 3 3 3 3 3 3 3 3 3 3 3 3 3 3 3 3 3 3 3 3 3 3 3 3 3 3 3 3 3 3 3 3
POINT_DATA 256
VECTORS displacement double
0 0 0
0.00749624 0 0
0.00749624 0 0
0.0148744 0 0
0.0148744 0 0
0.0221346 0 0
0.0221346 0 0
0.0292767 0 0
0.0292767 0 0
0.0363007 0 0
0.0363007 0 0
0.0432067 0 0
0.0432067 0 0
0.0499946 0 0
0.0499946 0 0
0.0566645 0 0
0.0566645 0 0
0.0632164 0 0
0.0632164 0 0
0.0696502 0 0
0.0696502 0 0
0.0759659 0 0
0.0759659 0 0
0.0821636 0 0
0.0821636 0 0
0.0882432 0 0
0.0882432 0 0
0.0942048 0 0
0.0942048 0 0
0.100048 0 0
0.100048 0 0
0.105774 0 0
0.105774 0 0
0.111381 0 0
0.111381 0 0
0.116871 0 0
0.116871 0 0
0.122242 0 0
0.122242 0 0
0.127495 0 0
0.127495 0 0
0.13263 0 0
0.13263 0 0
0.137648 0 0
0.137648 0 0
0.142547 0 0
0.142547 0 0
0.147328 0 0
0.147328 0 0
0.151991 0 0
0.151991 0 0
0.156536 0 0
0.156536 0 0
0.160963 0 0
0.160963 0 0
0.165272 0 0
0.165272 0 0
0.169462 0 0
0.169462 0 0
0.173535 0 0
0.173535 0 0
0.17749 0 0
0.17749 0 0
0.181327 0 0
0.181327 0 0
0.185045 0 0
0.185045 0 0
0.188646 0 0
0.188646 0 0
0.192128 0 0
0.192128 0 0
0.195493 0 0
0.195493 0 0
0.198739 0 0
0.198739 0 0
0.201867 0 0
0.201867 0 0
0.204878 0 0
0.204878 0 0
0.20777 0 0
0.20777 0 0
0.210544 0 0
0.210544 0 0
0.2132 0 0
0.2132 0 0
0.215738 0 0
0.215738 0 0
0.218158 0 0
0.218158 0 0
0.22046 0 0
0.22046 0 0
0.222644 0 0
0.222644 0 0
0.22471 0 0
0.22471 0 0
0.226658 0 0
0.226658 0 0
0.228488 0 0
0.228488 0 0
0.2302 0 0
0.2302 0 0
0.231793 0 0
0.231793 0 0
0.233269 0 0
0.233269 0 0
0.234627 0 0
0.234627 0 0
0.235866 0 0
0.235866 0 0
0.236988 0 0
0.236988 0 0
0.237991 0 0
0.237991 0 0
0.238876 0 0
0.238876 0 0
0.239644 0 0
0.239644 0 0
0.240293 0 0
0.240293 0 0
0.240824 0 0
0.240824 0 0
0.241237 0 0
0.241237 0 0
0.241533 0 0
0.241533 0 0
0.24171 0 0
0.24171 0 0
0.241769 0 0
0.241769 0 0
0.24171 0 0
0.24171 0 0
0.241533 0 0
0.241533 0 0
0.241237 0 0
0.241237 0 0
0.240824 0 0
0.240824 0 0
0.240293 0 0
0.240293 0 0
0.239644 0 0
0.239644 0 0
0.238876 0 0
0.238876 0 0
0.237991 0 0
0.237991 0 0
0.236988 0 0
0.236988 0 0
0.235866 0 0
0.235866 0 0
0.234627 0 0
0.234627 0 0
0.233269 0 0
0.233269 0 0
0.231793 0 0
0.231793 0 0
0.2302 0 0
0.2302 0 0
0.228488 0 0
0.228488 0 0
0.226658 0 0
0.226658 0 0
0.22471 0 0
0.22471 0 0
0.222644 0 0
0.222644 0 0
0.22046 0 0
0.22046 0 0
0.218158 0 0
0.218158 0 0
0.215738 0 0
0.215738 0 0
0.2132 0 0
0.2132 0 0
0.210544 0 0
0.210544 0 0
0.20777 0 0
0.20777 0 0
0.204878 0 0
0.204878 0 0
0.201867 0 0
0.201867 0 0
0.198739 0 0
0.198739 0 0
0.195493 0 0
0.195493 0 0
0.192128 0 0
0.192128 0 0
0.188646 0 0
0.188646 0 0
0.185045 0 0
0.185045 0 0
0.181327 0 0
0.181327 0 0
0.17749 0 0
0.17749 0 0
0.173535 0 0
0.173535 0 0
0.169462 0 0
0.169462 0 0
0.165272 0 0
0.165272 0 0
0.160963 0 0
0.160963 0 0
0.156536 0 0
0.156536 0 0
0.151991 0 0
0.151991 0 0
0.147328 0 0
0.147328 0 0
0.142547 0 0
0.142547 0 0
0.137648 0 0
0.137648 0 0
0.13263 0 0
0.13263 0 0
0.127495 0 0
0.127495 0 0
0.122242 0 0
0.122242 0 0
0.116871 0 0
0.116871 0 0
0.111381 0 0
0.111381 0 0
0.105774 0 0
0.105774 0 0
0.100048 0 0
0.100048 0 0
0.0942048 0 0
0.0942048 0 0
0.0882432 0 0
0.0882432 0 0
0.0821636 0 0
0.0821636 0 0
0.0759659 0 0
0.0759659 0 0
0.0696502 0 0
0.0696502 0 0
0.0632164 0 0
0.0632164 0 0
0.0566645 0 0
0.0566645 0 0
0.0499946 0 0
0.0499946 0 0
0.0432067 0 0
0.0432067 0 0
0.0363007 0 0
0.0363007 0 0
0.0292767 0 0
0.0292767 0 0
0.0221346 0 0
0.0221346 0 0
0.0148744 0 0
0.0148744 0 0
0.00749624 0 0
0.00749624 0 0
0 0 0
VECTORS velocity double
0 0 0
-0.00197277 0 0
-0.00197277 0 0
-0.00391448 0 0
-0.00391448 0 0
-0.00582512 0 0
-0.00582512 0 0
-0.00770469 0 0
-0.00770469 0 0
-0.0095532 0 0
-0.0095532 0 0
-0.0113706 0 0
-0.0113706 0 0
-0.013157 0 0
-0.013157 0 0
-0.0149123 0 0
-0.0149123 0 0
-0.0166366 0 0
-0.0166366 0 0
-0.0183297 0 0
-0.0183297 0 0
-0.0199918 0 0
-0.0199918 0 0
-0.0216229 0 0
-0.0216229 0 0
-0.0232228 0 0
-0.0232228 0 0
-0.0247917 0 0
-0.0247917 0 0
-0.0263296 0 0
-0.0263296 0 0
-0.0278364 0 0
-0.0278364 0 0
-0.0293121 0 0
-0.0293121 0 0
-0.0307567 0 0
-0.0307567 0 0
-0.0321703 0 0
-0.0321703 0 0
-0.0335528 0 0
-0.0335528 0 0
-0.0349042 0 0
-0.0349042 0 0
-0.0362246 0 0
-0.0362246 0 0
-0.0375139 0 0
-0.0375139 0 0
-0.0387721 0 0
-0.0387721 0 0
-0.0399993 0 0
-0.0399993 0 0
-0.0411954 0 0
-0.0411954 0 0
-0.0423604 0 0
-0.0423604 0 0
-0.0434944 0 0
-0.0434944 0 0
-0.0445973 0 0
-0.0445973 0 0
-0.0456691 0 0
-0.0456691 0 0
-0.0467099 0 0
-0.0467099 0 0
-0.0477196 0 0
-0.0477196 0 0
-0.0486982 0 0
-0.0486982 0 0
-0.0496457 0 0
-0.0496457 0 0
-0.0505622 0 0
-0.0505622 0 0
-0.0514477 0 0
-0.0514477 0 0
-0.052302 0 0
-0.052302 0 0
-0.0531253 0 0
-0.0531253 0 0
-0.0539175 0 0
-0.0539175 0 0
-0.0546787 0 0
-0.0546787 0 0
-0.0554088 0 0
-0.0554088 0 0
-0.0561078 0 0
-0.0561078 0 0
-0.0567757 0 0
-0.0567757 0 0
-0.0574126 0 0
-0.0574126 0 0
-0.0580184 0 0
-0.0580184 0 0
-0.0585932 0 0
-0.0585932 0 0
-0.0591369 0 0
-0.0591369 0 0
-0.0596495 0 0
-0.0596495 0 0
-0.060131 0 0
-0.060131 0 0
-0.0605815 0 0
-0.0605815 0 0
-0.0610009 0 0
-0.0610009 0 0
-0.0613893 0 0
-0.0613893 0 0
-0.0617465 0 0
-0.0617465 0 0
-0.0620728 0 0
-0.0620728 0 0
-0.0623679 0 0
-0.0623679 0 0
-0.062632 0 0
-0.062632 0 0
-0.062865 0 0
-0.062865 0 0
-0.0630669 0 0
-0.0630669 0 0
-0.0632378 0 0
-0.0632378 0 0
-0.0633776 0 0
-0.0633776 0 0
-0.0634863 0 0
-0.0634863 0 0
-0.063564 0 0
-0.063564 0 0
-0.0636106 0 0
-0.0636106 0 0
-0.0636261 0 0
-0.0636261 0 0
-0.0636106 0 0
-0.0636106 0 0
-0.063564 0 0
-0.063564 0 0
-0.0634863 0 0
-0.0634863 0 0
-0.0633776 0 0
-0.0633776 0 0
-0.0632378 0 0
-0.0632378 0 0
-0.0630669 0 0
-0.0630669 0 0
-0.062865 0 0
-0.062865 0 0
-0.062632 0 0
-0.062632 0 0
-0.0623679 0 0
-0.0623679 0 0
-0.0620728 0 0
-0.0620728 0 0
-0.0617465 0 0
-0.0617465 0 0
-0.0613893 0 0
-0.0613893 0 0
-0.0610009 0 0
-0.0610009 0 0
-0.0605815 0 0
-0.0605815 0 0
-0.060131 0 0
-0.060131 0 0
-0.0596495 0 0
-0.0596495 0 0
-0.0591369 0 0
-0.0591369 0 0
-0.0585932 0 0
-0.0585932 0 0
-0.0580184 0 0
-0.0580184 0 0
-0.0574126 0 0
-0.0574126 0 0
-0.0567757 0 0
-0.0567757 0 0
-0.0561078 0 0
-0.0561078 0 0
-0.0554088 0 0
-0.0554088 0 0
-0.0546787 0 0
-0.0546787 0 0
-0.0539175 0 0
-0.0539175 0 0
-0.0531253 0 0
-0.0531253 0 0
-0.052302 0 0
-0.052302 0 0
-0.0514477 0 0
-0.0514477 0 0
-0.0505622 0 0
-0.0505622 0 0
-0.0496457 0 0
-0.0496457 0 0
-0.0486982 0 0
-0.0486982 0 0
-0.0477196 0 0
-0.0477196 0 0
-0.0467099 0 0
-0.0467099 0 0
-0.0456691 0 0
-0.0456691 0 0
-0.0445973 0 0
-0.0445973 0 0
-0.0434944 0 0
-0.0434944 0 0
-0.0423604 0 0
-0.0423604 0 0
-0.0411954 0 0
-0.0411954 0 0
-0.0399993 0 0
-0.0399993 0 0
-0.0387721 0 0
-0.0387721 0 0
-0.0375139 0 0
-0.0375139 0 0
-0.0362246 0 0
-0.0362246 0 0
-0.0349042 0 0
-0.0349042 0 0
-0.0335528 0 0
-0.0335528 0 0
-0.0321703 0 0
-0.0321703 0 0
-0.0307567 0 0
-0.0307567 0 0
-0.0293121 0 0
-0.0293121 0 0
-0.0278364 0 0
-0.0278364 0 0
-0.0263296 0 0
-0.0263296 0 0
-0.0247917 0 0
-0.0247917 0 0
-0.0232228 0 0
-0.0232228 0 0
-0.0216229 0 0
-0.0216229 0 0
-0.0199918 0 0
-0.0199918 0 0
-0.0183297 0 0
-0.0183297 0 0
-0.0166366 0 0
-0.0166366 0 0
-0.0149123 0 0
-0.0149123 0 0
-0.013157 0 0
-0.013157 0 0
-0.0113706 0 0
-0.0113706 0 0
-0.0095532 0 0
-0.0095532 0 0
-0.00770469 0 0
-0.00770469 0 0
-0.00582512 0 0
-0.00582512 0 0
-0.00391448 0 0
-0.00391448 0 0
-0.00197277 0 0
-0.00197277 0 0
0 0 0
