# vtk DataFile Version 3.0
#This file was generated by the deal.II library on 2025/4/1 at 13:02:59
ASCII
DATASET UNSTRUCTURED_GRID

FIELD FieldData 1
TIME 1 1 double
1.08594
POINTS 256 double
0 0 0
0.0078125 0 0
0.0078125 0 0
0.015625 0 0
0.015625 0 0
0.0234375 0 0
0.0234375 0 0
0.03125 0 0
0.03125 0 0
0.0390625 0 0
0.0390625 0 0
0.046875 0 0
0.046875 0 0
0.0546875 0 0
0.0546875 0 0
0.0625 0 0
0.0625 0 0
0.0703125 0 0
0.0703125 0 0
0.078125 0 0
0.078125 0 0
0.0859375 0 0
0.0859375 0 0
0.09375 0 0
0.09375 0 0
0.101562 0 0
0.101562 0 0
0.109375 0 0
0.109375 0 0
0.117188 0 0
0.117188 0 0
0.125 0 0
0.125 0 0
0.132812 0 0
0.132812 0 0
0.140625 0 0
0.140625 0 0
0.148438 0 0
0.148438 0 0
0.15625 0 0
0.15625 0 0
0.164062 0 0
0.164062 0 0
0.171875 0 0
0.171875 0 0
0.179688 0 0
0.179688 0 0
0.1875 0 0
0.1875 0 0
0.195312 0 0
0.195312 0 0
0.203125 0 0
0.203125 0 0
0.210938 0 0
0.210938 0 0
0.21875 0 0
0.21875 0 0
0.226562 0 0
0.226562 0 0
0.234375 0 0
0.234375 0 0
0.242188 0 0
0.242188 0 0
0.25 0 0
0.25 0 0
0.257812 0 0
0.257812 0 0
0.265625 0 0
0.265625 0 0
0.273438 0 0
0.273438 0 0
0.28125 0 0
0.28125 0 0
0.289062 0 0
0.289062 0 0
0.296875 0 0
0.296875 0 0
0.304688 0 0
0.304688 0 0
0.3125 0 0
0.3125 0 0
0.320312 0 0
0.320312 0 0
0.328125 0 0
0.328125 0 0
0.335938 0 0
0.335938 0 0
0.34375 0 0
0.34375 0 0
0.351562 0 0
0.351562 0 0
0.359375 0 0
0.359375 0 0
0.367188 0 0
0.367188 0 0
0.375 0 0
0.375 0 0
0.382812 0 0
0.382812 0 0
0.390625 0 0
0.390625 0 0
0.398438 0 0
0.398438 0 0
0.40625 0 0
0.40625 0 0
0.414062 0 0
0.414062 0 0
0.421875 0 0
0.421875 0 0
0.429688 0 0
0.429688 0 0
0.4375 0 0
0.4375 0 0
0.445312 0 0
0.445312 0 0
0.453125 0 0
0.453125 0 0
0.460938 0 0
0.460938 0 0
0.46875 0 0
0.46875 0 0
0.476562 0 0
0.476562 0 0
0.484375 0 0
0.484375 0 0
0.492188 0 0
0.492188 0 0
0.5 0 0
0.5 0 0
0.507812 0 0
0.507812 0 0
0.515625 0 0
0.515625 0 0
0.523438 0 0
0.523438 0 0
0.53125 0 0
0.53125 0 0
0.539062 0 0
0.539062 0 0
0.546875 0 0
0.546875 0 0
0.554688 0 0
0.554688 0 0
0.5625 0 0
0.5625 0 0
0.570312 0 0
0.570312 0 0
0.578125 0 0
0.578125 0 0
0.585938 0 0
0.585938 0 0
0.59375 0 0
0.59375 0 0
0.601562 0 0
0.601562 0 0
0.609375 0 0
0.609375 0 0
0.617188 0 0
0.617188 0 0
0.625 0 0
0.625 0 0
0.632812 0 0
0.632812 0 0
0.640625 0 0
0.640625 0 0
0.648438 0 0
0.648438 0 0
0.65625 0 0
0.65625 0 0
0.664062 0 0
0.664062 0 0
0.671875 0 0
0.671875 0 0
0.679688 0 0
0.679688 0 0
0.6875 0 0
0.6875 0 0
0.695312 0 0
0.695312 0 0
0.703125 0 0
0.703125 0 0
0.710938 0 0
0.710938 0 0
0.71875 0 0
0.71875 0 0
0.726562 0 0
0.726562 0 0
0.734375 0 0
0.734375 0 0
0.742188 0 0
0.742188 0 0
0.75 0 0
0.75 0 0
0.757812 0 0
0.757812 0 0
0.765625 0 0
0.765625 0 0
0.773438 0 0
0.773438 0 0
0.78125 0 0
0.78125 0 0
0.789062 0 0
0.789062 0 0
0.796875 0 0
0.796875 0 0
0.804688 0 0
0.804688 0 0
0.8125 0 0
0.8125 0 0
0.820312 0 0
0.820312 0 0
0.828125 0 0
0.828125 0 0
0.835938 0 0
0.835938 0 0
0.84375 0 0
0.84375 0 0
0.851562 0 0
0.851562 0 0
0.859375 0 0
0.859375 0 0
0.867188 0 0
0.867188 0 0
0.875 0 0
0.875 0 0
0.882812 0 0
0.882812 0 0
0.890625 0 0
0.890625 0 0
0.898438 0 0
0.898438 0 0
0.90625 0 0
0.90625 0 0
0.914062 0 0
0.914062 0 0
0.921875 0 0
0.921875 0 0
0.929688 0 0
0.929688 0 0
0.9375 0 0
0.9375 0 0
0.945312 0 0
0.945312 0 0
0.953125 0 0
0.953125 0 0
0.960938 0 0
0.960938 0 0
0.96875 0 0
0.96875 0 0
0.976562 0 0
0.976562 0 0
0.984375 0 0
0.984375 0 0
0.992188 0 0
0.992188 0 0
1 0 0

CELLS 128 384
2	0	1
2	2	3
2	4	5
2	6	7
2	8	9
2	10	11
2	12	13
2	14	15
2	16	17
2	18	19
2	20	21
2	22	23
2	24	25
2	26	27
2	28	29
2	30	31
2	32	33
2	34	35
2	36	37
2	38	39
2	40	41
2	42	43
2	44	45
2	46	47
2	48	49
2	50	51
2	52	53
2	54	55
2	56	57
2	58	59
2	60	61
2	62	63
2	64	65
2	66	67
2	68	69
2	70	71
2	72	73
2	74	75
2	76	77
2	78	79
2	80	81
2	82	83
2	84	85
2	86	87
2	88	89
2	90	91
2	92	93
2	94	95
2	96	97
2	98	99
2	100	101
2	102	103
2	104	105
2	106	107
2	108	109
2	110	111
2	112	113
2	114	115
2	116	117
2	118	119
2	120	121
2	122	123
2	124	125
2	126	127
2	128	129
2	130	131
2	132	133
2	134	135
2	136	137
2	138	139
2	140	141
2	142	143
2	144	145
2	146	147
2	148	149
2	150	151
2	152	153
2	154	155
2	156	157
2	158	159
2	160	161
2	162	163
2	164	165
2	166	167
2	168	169
2	170	171
2	172	173
2	174	175
2	176	177
2	178	179
2	180	181
2	182	183
2	184	185
2	186	187
2	188	189
2	190	191
2	192	193
2	194	195
2	196	197
2	198	199
2	200	201
2	202	203
2	204	205
2	206	207
2	208	209
2	210	211
2	212	213
2	214	215
2	216	217
2	218	219
2	220	221
2	222	223
2	224	225
2	226	227
2	228	229
2	230	231
2	232	233
2	234	235
2	236	237
2	238	239
2	240	241
2	242	243
2	244	245
2	246	247
2	248	249
2	250	251
2	252	253
2	254	255

CELL_TYPES 128
 3 3 3 3 3 3 3 3 3 3 3 3 3 3 3 3 3 3 3 3 3 3 3 3 3 3 3 3 3 3 3 3 3 3 3 3 3 3 3 3 3 3 3 3 3 3 3 3 3 3 3 3 3 3 3 3 3 3 3 3 3 3 3 3 3 3 3 3 3 3 3 3 3 3 3 3 3 3 3 3 3 3 3 3 3 3 3 3 3 3 3 3 3 3 3 3 3 3 3 3 3 3 3 3 3 3 3 3 3 3 3 3 3 3 3 3 3 3 3 3 3 3 3 3 3 3 3 3
POINT_DATA 256
VECTORS displacement double
0 0 0
0.00685804 0 0
0.00685804 0 0
0.0136081 0 0
0.0136081 0 0
0.0202501 0 0
0.0202501 0 0
0.0267842 0 0
0.0267842 0 0
0.0332102 0 0
0.0332102 0 0
0.0395283 0 0
0.0395283 0 0
0.0457383 0 0
0.0457383 0 0
0.0518403 0 0
0.0518403 0 0
0.0578344 0 0
0.0578344 0 0
0.0637204 0 0
0.0637204 0 0
0.0694984 0 0
0.0694984 0 0
0.0751685 0 0
0.0751685 0 0
0.0807305 0 0
0.0807305 0 0
0.0861846 0 0
0.0861846 0 0
0.0915306 0 0
0.0915306 0 0
0.0967686 0 0
0.0967686 0 0
0.101899 0 0
0.101899 0 0
0.106921 0 0
0.106921 0 0
0.111835 0 0
0.111835 0 0
0.116641 0 0
0.116641 0 0
0.121339 0 0
0.121339 0 0
0.125929 0 0
0.125929 0 0
0.130411 0 0
0.130411 0 0
0.134785 0 0
0.134785 0 0
0.139051 0 0
0.139051 0 0
0.143209 0 0
0.143209 0 0
0.147259 0 0
0.147259 0 0
0.151201 0 0
0.151201 0 0
0.155035 0 0
0.155035 0 0
0.158761 0 0
0.158761 0 0
0.162379 0 0
0.162379 0 0
0.165889 0 0
0.165889 0 0
0.169291 0 0
0.169291 0 0
0.172585 0 0
0.172585 0 0
0.175771 0 0
0.175771 0 0
0.178849 0 0
0.178849 0 0
0.181819 0 0
0.181819 0 0
0.184681 0 0
0.184681 0 0
0.187435 0 0
0.187435 0 0
0.190081 0 0
0.190081 0 0
0.192619 0 0
0.192619 0 0
0.195049 0 0
0.195049 0 0
0.197371 0 0
0.197371 0 0
0.199585 0 0
0.199585 0 0
0.201691 0 0
0.201691 0 0
0.203689 0 0
0.203689 0 0
0.205579 0 0
0.205579 0 0
0.207361 0 0
0.207361 0 0
0.209035 0 0
0.209035 0 0
0.210601 0 0
0.210601 0 0
0.212059 0 0
0.212059 0 0
0.213409 0 0
0.213409 0 0
0.214651 0 0
0.214651 0 0
0.215785 0 0
0.215785 0 0
0.216811 0 0
0.216811 0 0
0.217729 0 0
0.217729 0 0
0.218539 0 0
0.218539 0 0
0.219241 0 0
0.219241 0 0
0.219835 0 0
0.219835 0 0
0.220321 0 0
0.220321 0 0
0.220699 0 0
0.220699 0 0
0.220969 0 0
0.220969 0 0
0.221131 0 0
0.221131 0 0
0.221185 0 0
0.221185 0 0
0.221131 0 0
0.221131 0 0
0.220969 0 0
0.220969 0 0
0.220699 0 0
0.220699 0 0
0.220321 0 0
0.220321 0 0
0.219835 0 0
0.219835 0 0
0.219241 0 0
0.219241 0 0
0.218539 0 0
0.218539 0 0
0.217729 0 0
0.217729 0 0
0.216811 0 0
0.216811 0 0
0.215785 0 0
0.215785 0 0
0.214651 0 0
0.214651 0 0
0.213409 0 0
0.213409 0 0
0.212059 0 0
0.212059 0 0
0.210601 0 0
0.210601 0 0
0.209035 0 0
0.209035 0 0
0.207361 0 0
0.207361 0 0
0.205579 0 0
0.205579 0 0
0.203689 0 0
0.203689 0 0
0.201691 0 0
0.201691 0 0
0.199585 0 0
0.199585 0 0
0.197371 0 0
0.197371 0 0
0.195049 0 0
0.195049 0 0
0.192619 0 0
0.192619 0 0
0.190081 0 0
0.190081 0 0
0.187435 0 0
0.187435 0 0
0.184681 0 0
0.184681 0 0
0.181819 0 0
0.181819 0 0
0.178849 0 0
0.178849 0 0
0.175771 0 0
0.175771 0 0
0.172585 0 0
0.172585 0 0
0.169291 0 0
0.169291 0 0
0.165889 0 0
0.165889 0 0
0.162379 0 0
0.162379 0 0
0.158761 0 0
0.158761 0 0
0.155035 0 0
0.155035 0 0
0.151201 0 0
0.151201 0 0
0.147259 0 0
0.147259 0 0
0.143209 0 0
0.143209 0 0
0.139051 0 0
0.139051 0 0
0.134785 0 0
0.134785 0 0
0.130411 0 0
0.130411 0 0
0.125929 0 0
0.125929 0 0
0.121339 0 0
0.121339 0 0
0.116641 0 0
0.116641 0 0
0.111835 0 0
0.111835 0 0
0.106921 0 0
0.106921 0 0
0.101899 0 0
0.101899 0 0
0.0967686 0 0
0.0967686 0 0
0.0915306 0 0
0.0915306 0 0
0.0861846 0 0
0.0861846 0 0
0.0807305 0 0
0.0807305 0 0
0.0751685 0 0
0.0751685 0 0
0.0694984 0 0
0.0694984 0 0
0.0637204 0 0
0.0637204 0 0
0.0578344 0 0
0.0578344 0 0
0.0518403 0 0
0.0518403 0 0
0.0457383 0 0
0.0457383 0 0
0.0395283 0 0
0.0395283 0 0
0.0332102 0 0
0.0332102 0 0
0.0267842 0 0
0.0267842 0 0
0.0202501 0 0
0.0202501 0 0
0.0136081 0 0
0.0136081 0 0
0.00685804 0 0
0.00685804 0 0
0 0 0
VECTORS velocity double
0 0 0
0.00361289 0 0
0.00361289 0 0
0.00716888 0 0
0.00716888 0 0
0.010668 0 0
0.010668 0 0
0.0141102 0 0
0.0141102 0 0
0.0174955 0 0
0.0174955 0 0
0.0208239 0 0
0.0208239 0 0
0.0240954 0 0
0.0240954 0 0
0.02731 0 0
0.02731 0 0
0.0304677 0 0
0.0304677 0 0
0.0335686 0 0
0.0335686 0 0
0.0366125 0 0
0.0366125 0 0
0.0395995 0 0
0.0395995 0 0
0.0425297 0 0
0.0425297 0 0
0.0454029 0 0
0.0454029 0 0
0.0482193 0 0
0.0482193 0 0
0.0509787 0 0
0.0509787 0 0
0.0536813 0 0
0.0536813 0 0
0.056327 0 0
0.056327 0 0
0.0589157 0 0
0.0589157 0 0
0.0614476 0 0
0.0614476 0 0
0.0639226 0 0
0.0639226 0 0
0.0663406 0 0
0.0663406 0 0
0.0687018 0 0
0.0687018 0 0
0.0710061 0 0
0.0710061 0 0
0.0732535 0 0
0.0732535 0 0
0.075444 0 0
0.075444 0 0
0.0775776 0 0
0.0775776 0 0
0.0796543 0 0
0.0796543 0 0
0.0816741 0 0
0.0816741 0 0
0.083637 0 0
0.083637 0 0
0.085543 0 0
0.085543 0 0
0.0873922 0 0
0.0873922 0 0
0.0891844 0 0
0.0891844 0 0
0.0909197 0 0
0.0909197 0 0
0.0925981 0 0
0.0925981 0 0
0.0942197 0 0
0.0942197 0 0
0.0957843 0 0
0.0957843 0 0
0.0972921 0 0
0.0972921 0 0
0.0987429 0 0
0.0987429 0 0
0.100137 0 0
0.100137 0 0
0.101474 0 0
0.101474 0 0
0.102754 0 0
0.102754 0 0
0.103977 0 0
0.103977 0 0
0.105144 0 0
0.105144 0 0
0.106253 0 0
0.106253 0 0
0.107306 0 0
0.107306 0 0
0.108301 0 0
0.108301 0 0
0.10924 0 0
0.10924 0 0
0.110122 0 0
0.110122 0 0
0.110947 0 0
0.110947 0 0
0.111715 0 0
0.111715 0 0
0.112426 0 0
0.112426 0 0
0.113081 0 0
0.113081 0 0
0.113678 0 0
0.113678 0 0
0.114219 0 0
0.114219 0 0
0.114702 0 0
0.114702 0 0
0.115129 0 0
0.115129 0 0
0.115499 0 0
0.115499 0 0
0.115812 0 0
0.115812 0 0
0.116068 0 0
0.116068 0 0
0.116267 0 0
0.116267 0 0
0.116409 0 0
0.116409 0 0
0.116494 0 0
0.116494 0 0
0.116523 0 0
0.116523 0 0
0.116494 0 0
0.116494 0 0
0.116409 0 0
0.116409 0 0
0.116267 0 0
0.116267 0 0
0.116068 0 0
0.116068 0 0
0.115812 0 0
0.115812 0 0
0.115499 0 0
0.115499 0 0
0.115129 0 0
0.115129 0 0
0.114702 0 0
0.114702 0 0
0.114219 0 0
0.114219 0 0
0.113678 0 0
0.113678 0 0
0.113081 0 0
0.113081 0 0
0.112426 0 0
0.112426 0 0
0.111715 0 0
0.111715 0 0
0.110947 0 0
0.110947 0 0
0.110122 0 0
0.110122 0 0
0.10924 0 0
0.10924 0 0
0.108301 0 0
0.108301 0 0
0.107306 0 0
0.107306 0 0
0.106253 0 0
0.106253 0 0
0.105144 0 0
0.105144 0 0
0.103977 0 0
0.103977 0 0
0.102754 0 0
0.102754 0 0
0.101474 0 0
0.101474 0 0
0.100137 0 0
0.100137 0 0
0.0987429 0 0
0.0987429 0 0
0.0972921 0 0
0.0972921 0 0
0.0957843 0 0
0.0957843 0 0
0.0942197 0 0
0.0942197 0 0
0.0925981 0 0
0.0925981 0 0
0.0909197 0 0
0.0909197 0 0
0.0891844 0 0
0.0891844 0 0
0.0873922 0 0
0.0873922 0 0
0.085543 0 0
0.085543 0 0
0.083637 0 0
0.083637 0 0
0.0816741 0 0
0.0816741 0 0
0.0796543 0 0
0.0796543 0 0
0.0775776 0 0
0.0775776 0 0
0.075444 0 0
0.075444 0 0
0.0732535 0 0
0.0732535 0 0
0.0710061 0 0
0.0710061 0 0
0.0687018 0 0
0.0687018 0 0
0.0663406 0 0
0.0663406 0 0
0.0639226 0 0
0.0639226 0 0
0.0614476 0 0
0.0614476 0 0
0.0589157 0 0
0.0589157 0 0
0.056327 0 0
0.056327 0 0
0.0536813 0 0
0.0536813 0 0
0.0509787 0 0
0.0509787 0 0
0.0482193 0 0
0.0482193 0 0
0.0454029 0 0
0.0454029 0 0
0.0425297 0 0
0.0425297 0 0
0.0395995 0 0
0.0395995 0 0
0.0366125 0 0
0.0366125 0 0
0.0335686 0 0
0.0335686 0 0
0.0304677 0 0
0.0304677 0 0
0.02731 0 0
0.02731 0 0
0.0240954 0 0
0.0240954 0 0
0.0208239 0 0
0.0208239 0 0
0.0174955 0 0
0.0174955 0 0
0.0141102 0 0
0.0141102 0 0
0.010668 0 0
0.010668 0 0
0.00716888 0 0
0.00716888 0 0
0.00361289 0 0
0.00361289 0 0
0 0 0
