# vtk DataFile Version 3.0
#This file was generated by the deal.II library on 2025/4/1 at 13:04:13
ASCII
DATASET UNSTRUCTURED_GRID

FIELD FieldData 1
TIME 1 1 double
3.07031
POINTS 256 double
0 0 0
0.0078125 0 0
0.0078125 0 0
0.015625 0 0
0.015625 0 0
0.0234375 0 0
0.0234375 0 0
0.03125 0 0
0.03125 0 0
0.0390625 0 0
0.0390625 0 0
0.046875 0 0
0.046875 0 0
0.0546875 0 0
0.0546875 0 0
0.0625 0 0
0.0625 0 0
0.0703125 0 0
0.0703125 0 0
0.078125 0 0
0.078125 0 0
0.0859375 0 0
0.0859375 0 0
0.09375 0 0
0.09375 0 0
0.101562 0 0
0.101562 0 0
0.109375 0 0
0.109375 0 0
0.117188 0 0
0.117188 0 0
0.125 0 0
0.125 0 0
0.132812 0 0
0.132812 0 0
0.140625 0 0
0.140625 0 0
0.148438 0 0
0.148438 0 0
0.15625 0 0
0.15625 0 0
0.164062 0 0
0.164062 0 0
0.171875 0 0
0.171875 0 0
0.179688 0 0
0.179688 0 0
0.1875 0 0
0.1875 0 0
0.195312 0 0
0.195312 0 0
0.203125 0 0
0.203125 0 0
0.210938 0 0
0.210938 0 0
0.21875 0 0
0.21875 0 0
0.226562 0 0
0.226562 0 0
0.234375 0 0
0.234375 0 0
0.242188 0 0
0.242188 0 0
0.25 0 0
0.25 0 0
0.257812 0 0
0.257812 0 0
0.265625 0 0
0.265625 0 0
0.273438 0 0
0.273438 0 0
0.28125 0 0
0.28125 0 0
0.289062 0 0
0.289062 0 0
0.296875 0 0
0.296875 0 0
0.304688 0 0
0.304688 0 0
0.3125 0 0
0.3125 0 0
0.320312 0 0
0.320312 0 0
0.328125 0 0
0.328125 0 0
0.335938 0 0
0.335938 0 0
0.34375 0 0
0.34375 0 0
0.351562 0 0
0.351562 0 0
0.359375 0 0
0.359375 0 0
0.367188 0 0
0.367188 0 0
0.375 0 0
0.375 0 0
0.382812 0 0
0.382812 0 0
0.390625 0 0
0.390625 0 0
0.398438 0 0
0.398438 0 0
0.40625 0 0
0.40625 0 0
0.414062 0 0
0.414062 0 0
0.421875 0 0
0.421875 0 0
0.429688 0 0
0.429688 0 0
0.4375 0 0
0.4375 0 0
0.445312 0 0
0.445312 0 0
0.453125 0 0
0.453125 0 0
0.460938 0 0
0.460938 0 0
0.46875 0 0
0.46875 0 0
0.476562 0 0
0.476562 0 0
0.484375 0 0
0.484375 0 0
0.492188 0 0
0.492188 0 0
0.5 0 0
0.5 0 0
0.507812 0 0
0.507812 0 0
0.515625 0 0
0.515625 0 0
0.523438 0 0
0.523438 0 0
0.53125 0 0
0.53125 0 0
0.539062 0 0
0.539062 0 0
0.546875 0 0
0.546875 0 0
0.554688 0 0
0.554688 0 0
0.5625 0 0
0.5625 0 0
0.570312 0 0
0.570312 0 0
0.578125 0 0
0.578125 0 0
0.585938 0 0
0.585938 0 0
0.59375 0 0
0.59375 0 0
0.601562 0 0
0.601562 0 0
0.609375 0 0
0.609375 0 0
0.617188 0 0
0.617188 0 0
0.625 0 0
0.625 0 0
0.632812 0 0
0.632812 0 0
0.640625 0 0
0.640625 0 0
0.648438 0 0
0.648438 0 0
0.65625 0 0
0.65625 0 0
0.664062 0 0
0.664062 0 0
0.671875 0 0
0.671875 0 0
0.679688 0 0
0.679688 0 0
0.6875 0 0
0.6875 0 0
0.695312 0 0
0.695312 0 0
0.703125 0 0
0.703125 0 0
0.710938 0 0
0.710938 0 0
0.71875 0 0
0.71875 0 0
0.726562 0 0
0.726562 0 0
0.734375 0 0
0.734375 0 0
0.742188 0 0
0.742188 0 0
0.75 0 0
0.75 0 0
0.757812 0 0
0.757812 0 0
0.765625 0 0
0.765625 0 0
0.773438 0 0
0.773438 0 0
0.78125 0 0
0.78125 0 0
0.789062 0 0
0.789062 0 0
0.796875 0 0
0.796875 0 0
0.804688 0 0
0.804688 0 0
0.8125 0 0
0.8125 0 0
0.820312 0 0
0.820312 0 0
0.828125 0 0
0.828125 0 0
0.835938 0 0
0.835938 0 0
0.84375 0 0
0.84375 0 0
0.851562 0 0
0.851562 0 0
0.859375 0 0
0.859375 0 0
0.867188 0 0
0.867188 0 0
0.875 0 0
0.875 0 0
0.882812 0 0
0.882812 0 0
0.890625 0 0
0.890625 0 0
0.898438 0 0
0.898438 0 0
0.90625 0 0
0.90625 0 0
0.914062 0 0
0.914062 0 0
0.921875 0 0
0.921875 0 0
0.929688 0 0
0.929688 0 0
0.9375 0 0
0.9375 0 0
0.945312 0 0
0.945312 0 0
0.953125 0 0
0.953125 0 0
0.960938 0 0
0.960938 0 0
0.96875 0 0
0.96875 0 0
0.976562 0 0
0.976562 0 0
0.984375 0 0
0.984375 0 0
0.992188 0 0
0.992188 0 0
1 0 0

CELLS 128 384
2	0	1
2	2	3
2	4	5
2	6	7
2	8	9
2	10	11
2	12	13
2	14	15
2	16	17
2	18	19
2	20	21
2	22	23
2	24	25
2	26	27
2	28	29
2	30	31
2	32	33
2	34	35
2	36	37
2	38	39
2	40	41
2	42	43
2	44	45
2	46	47
2	48	49
2	50	51
2	52	53
2	54	55
2	56	57
2	58	59
2	60	61
2	62	63
2	64	65
2	66	67
2	68	69
2	70	71
2	72	73
2	74	75
2	76	77
2	78	79
2	80	81
2	82	83
2	84	85
2	86	87
2	88	89
2	90	91
2	92	93
2	94	95
2	96	97
2	98	99
2	100	101
2	102	103
2	104	105
2	106	107
2	108	109
2	110	111
2	112	113
2	114	115
2	116	117
2	118	119
2	120	121
2	122	123
2	124	125
2	126	127
2	128	129
2	130	131
2	132	133
2	134	135
2	136	137
2	138	139
2	140	141
2	142	143
2	144	145
2	146	147
2	148	149
2	150	151
2	152	153
2	154	155
2	156	157
2	158	159
2	160	161
2	162	163
2	164	165
2	166	167
2	168	169
2	170	171
2	172	173
2	174	175
2	176	177
2	178	179
2	180	181
2	182	183
2	184	185
2	186	187
2	188	189
2	190	191
2	192	193
2	194	195
2	196	197
2	198	199
2	200	201
2	202	203
2	204	205
2	206	207
2	208	209
2	210	211
2	212	213
2	214	215
2	216	217
2	218	219
2	220	221
2	222	223
2	224	225
2	226	227
2	228	229
2	230	231
2	232	233
2	234	235
2	236	237
2	238	239
2	240	241
2	242	243
2	244	245
2	246	247
2	248	249
2	250	251
2	252	253
2	254	255

CELL_TYPES 128
 3 3 3 3 3 3 3 3 3 3 3 3 3 3 3 3 3 3 3 3 3 3 3 3 3 3 3 3 3 3 3 3 3 3 3 3 3 3 3 3 3 3 3 3 3 3 3 3 3 3 3 3 3 3 3 3 3 3 3 3 3 3 3 3 3 3 3 3 3 3 3 3 3 3 3 3 3 3 3 3 3 3 3 3 3 3 3 3 3 3 3 3 3 3 3 3 3 3 3 3 3 3 3 3 3 3 3 3 3 3 3 3 3 3 3 3 3 3 3 3 3 3 3 3 3 3 3 3
POINT_DATA 256
VECTORS displacement double
0 0 0
0.000552061 0 0
0.000552061 0 0
0.00109543 0 0
0.00109543 0 0
0.0016301 0 0
0.0016301 0 0
0.00215608 0 0
0.00215608 0 0
0.00267337 0 0
0.00267337 0 0
0.00318196 0 0
0.00318196 0 0
0.00368186 0 0
0.00368186 0 0
0.00417306 0 0
0.00417306 0 0
0.00465557 0 0
0.00465557 0 0
0.00512939 0 0
0.00512939 0 0
0.00559451 0 0
0.00559451 0 0
0.00605094 0 0
0.00605094 0 0
0.00649867 0 0
0.00649867 0 0
0.00693771 0 0
0.00693771 0 0
0.00736806 0 0
0.00736806 0 0
0.00778971 0 0
0.00778971 0 0
0.00820267 0 0
0.00820267 0 0
0.00860694 0 0
0.00860694 0 0
0.00900251 0 0
0.00900251 0 0
0.00938939 0 0
0.00938939 0 0
0.00976757 0 0
0.00976757 0 0
0.0101371 0 0
0.0101371 0 0
0.0104979 0 0
0.0104979 0 0
0.01085 0 0
0.01085 0 0
0.0111934 0 0
0.0111934 0 0
0.0115281 0 0
0.0115281 0 0
0.0118541 0 0
0.0118541 0 0
0.0121714 0 0
0.0121714 0 0
0.0124801 0 0
0.0124801 0 0
0.01278 0 0
0.01278 0 0
0.0130712 0 0
0.0130712 0 0
0.0133538 0 0
0.0133538 0 0
0.0136277 0 0
0.0136277 0 0
0.0138928 0 0
0.0138928 0 0
0.0141493 0 0
0.0141493 0 0
0.0143971 0 0
0.0143971 0 0
0.0146361 0 0
0.0146361 0 0
0.0148665 0 0
0.0148665 0 0
0.0150882 0 0
0.0150882 0 0
0.0153012 0 0
0.0153012 0 0
0.0155055 0 0
0.0155055 0 0
0.0157011 0 0
0.0157011 0 0
0.0158881 0 0
0.0158881 0 0
0.0160663 0 0
0.0160663 0 0
0.0162358 0 0
0.0162358 0 0
0.0163967 0 0
0.0163967 0 0
0.0165488 0 0
0.0165488 0 0
0.0166922 0 0
0.0166922 0 0
0.016827 0 0
0.016827 0 0
0.0169531 0 0
0.0169531 0 0
0.0170704 0 0
0.0170704 0 0
0.0171791 0 0
0.0171791 0 0
0.0172791 0 0
0.0172791 0 0
0.0173704 0 0
0.0173704 0 0
0.017453 0 0
0.017453 0 0
0.0175269 0 0
0.0175269 0 0
0.0175921 0 0
0.0175921 0 0
0.0176486 0 0
0.0176486 0 0
0.0176964 0 0
0.0176964 0 0
0.0177355 0 0
0.0177355 0 0
0.0177659 0 0
0.0177659 0 0
0.0177877 0 0
0.0177877 0 0
0.0178007 0 0
0.0178007 0 0
0.0178051 0 0
0.0178051 0 0
0.0178007 0 0
0.0178007 0 0
0.0177877 0 0
0.0177877 0 0
0.0177659 0 0
0.0177659 0 0
0.0177355 0 0
0.0177355 0 0
0.0176964 0 0
0.0176964 0 0
0.0176486 0 0
0.0176486 0 0
0.0175921 0 0
0.0175921 0 0
0.0175269 0 0
0.0175269 0 0
0.017453 0 0
0.017453 0 0
0.0173704 0 0
0.0173704 0 0
0.0172791 0 0
0.0172791 0 0
0.0171791 0 0
0.0171791 0 0
0.0170704 0 0
0.0170704 0 0
0.0169531 0 0
0.0169531 0 0
0.016827 0 0
0.016827 0 0
0.0166922 0 0
0.0166922 0 0
0.0165488 0 0
0.0165488 0 0
0.0163967 0 0
0.0163967 0 0
0.0162358 0 0
0.0162358 0 0
0.0160663 0 0
0.0160663 0 0
0.0158881 0 0
0.0158881 0 0
0.0157011 0 0
0.0157011 0 0
0.0155055 0 0
0.0155055 0 0
0.0153012 0 0
0.0153012 0 0
0.0150882 0 0
0.0150882 0 0
0.0148665 0 0
0.0148665 0 0
0.0146361 0 0
0.0146361 0 0
0.0143971 0 0
0.0143971 0 0
0.0141493 0 0
0.0141493 0 0
0.0138928 0 0
0.0138928 0 0
0.0136277 0 0
0.0136277 0 0
0.0133538 0 0
0.0133538 0 0
0.0130712 0 0
0.0130712 0 0
0.01278 0 0
0.01278 0 0
0.0124801 0 0
0.0124801 0 0
0.0121714 0 0
0.0121714 0 0
0.0118541 0 0
0.0118541 0 0
0.0115281 0 0
0.0115281 0 0
0.0111934 0 0
0.0111934 0 0
0.01085 0 0
0.01085 0 0
0.0104979 0 0
0.0104979 0 0
0.0101371 0 0
0.0101371 0 0
0.00976757 0 0
0.00976757 0 0
0.00938939 0 0
0.00938939 0 0
0.00900251 0 0
0.00900251 0 0
0.00860694 0 0
0.00860694 0 0
0.00820267 0 0
0.00820267 0 0
0.00778971 0 0
0.00778971 0 0
0.00736806 0 0
0.00736806 0 0
0.00693771 0 0
0.00693771 0 0
0.00649867 0 0
0.00649867 0 0
0.00605094 0 0
0.00605094 0 0
0.00559451 0 0
0.00559451 0 0
0.00512939 0 0
0.00512939 0 0
0.00465557 0 0
0.00465557 0 0
0.00417306 0 0
0.00417306 0 0
0.00368186 0 0
0.00368186 0 0
0.00318196 0 0
0.00318196 0 0
0.00267337 0 0
0.00267337 0 0
0.00215608 0 0
0.00215608 0 0
0.0016301 0 0
0.0016301 0 0
0.00109543 0 0
0.00109543 0 0
0.000552061 0 0
0.000552061 0 0
0 0 0
VECTORS velocity double
0 0 0
-0.00773179 0 0
-0.00773179 0 0
-0.0153418 0 0
-0.0153418 0 0
-0.0228301 0 0
-0.0228301 0 0
-0.0301966 0 0
-0.0301966 0 0
-0.0374413 0 0
-0.0374413 0 0
-0.0445643 0 0
-0.0445643 0 0
-0.0515655 0 0
-0.0515655 0 0
-0.058445 0 0
-0.058445 0 0
-0.0652027 0 0
-0.0652027 0 0
-0.0718386 0 0
-0.0718386 0 0
-0.0783528 0 0
-0.0783528 0 0
-0.0847452 0 0
-0.0847452 0 0
-0.0910159 0 0
-0.0910159 0 0
-0.0971648 0 0
-0.0971648 0 0
-0.103192 0 0
-0.103192 0 0
-0.109097 0 0
-0.109097 0 0
-0.114881 0 0
-0.114881 0 0
-0.120543 0 0
-0.120543 0 0
-0.126083 0 0
-0.126083 0 0
-0.131501 0 0
-0.131501 0 0
-0.136798 0 0
-0.136798 0 0
-0.141973 0 0
-0.141973 0 0
-0.147026 0 0
-0.147026 0 0
-0.151957 0 0
-0.151957 0 0
-0.156766 0 0
-0.156766 0 0
-0.161454 0 0
-0.161454 0 0
-0.16602 0 0
-0.16602 0 0
-0.170464 0 0
-0.170464 0 0
-0.174787 0 0
-0.174787 0 0
-0.178988 0 0
-0.178988 0 0
-0.183067 0 0
-0.183067 0 0
-0.187024 0 0
-0.187024 0 0
-0.190859 0 0
-0.190859 0 0
-0.194573 0 0
-0.194573 0 0
-0.198165 0 0
-0.198165 0 0
-0.201635 0 0
-0.201635 0 0
-0.204984 0 0
-0.204984 0 0
-0.20821 0 0
-0.20821 0 0
-0.211315 0 0
-0.211315 0 0
-0.214298 0 0
-0.214298 0 0
-0.21716 0 0
-0.21716 0 0
-0.219899 0 0
-0.219899 0 0
-0.222517 0 0
-0.222517 0 0
-0.225013 0 0
-0.225013 0 0
-0.227387 0 0
-0.227387 0 0
-0.22964 0 0
-0.22964 0 0
-0.231771 0 0
-0.231771 0 0
-0.23378 0 0
-0.23378 0 0
-0.235667 0 0
-0.235667 0 0
-0.237433 0 0
-0.237433 0 0
-0.239076 0 0
-0.239076 0 0
-0.240598 0 0
-0.240598 0 0
-0.241999 0 0
-0.241999 0 0
-0.243277 0 0
-0.243277 0 0
-0.244434 0 0
-0.244434 0 0
-0.245469 0 0
-0.245469 0 0
-0.246382 0 0
-0.246382 0 0
-0.247174 0 0
-0.247174 0 0
-0.247843 0 0
-0.247843 0 0
-0.248391 0 0
-0.248391 0 0
-0.248817 0 0
-0.248817 0 0
-0.249122 0 0
-0.249122 0 0
-0.249304 0 0
-0.249304 0 0
-0.249365 0 0
-0.249365 0 0
-0.249304 0 0
-0.249304 0 0
-0.249122 0 0
-0.249122 0 0
-0.248817 0 0
-0.248817 0 0
-0.248391 0 0
-0.248391 0 0
-0.247843 0 0
-0.247843 0 0
-0.247174 0 0
-0.247174 0 0
-0.246382 0 0
-0.246382 0 0
-0.245469 0 0
-0.245469 0 0
-0.244434 0 0
-0.244434 0 0
-0.243277 0 0
-0.243277 0 0
-0.241999 0 0
-0.241999 0 0
-0.240598 0 0
-0.240598 0 0
-0.239076 0 0
-0.239076 0 0
-0.237433 0 0
-0.237433 0 0
-0.235667 0 0
-0.235667 0 0
-0.23378 0 0
-0.23378 0 0
-0.231771 0 0
-0.231771 0 0
-0.22964 0 0
-0.22964 0 0
-0.227387 0 0
-0.227387 0 0
-0.225013 0 0
-0.225013 0 0
-0.222517 0 0
-0.222517 0 0
-0.219899 0 0
-0.219899 0 0
-0.21716 0 0
-0.21716 0 0
-0.214298 0 0
-0.214298 0 0
-0.211315 0 0
-0.211315 0 0
-0.20821 0 0
-0.20821 0 0
-0.204984 0 0
-0.204984 0 0
-0.201635 0 0
-0.201635 0 0
-0.198165 0 0
-0.198165 0 0
-0.194573 0 0
-0.194573 0 0
-0.190859 0 0
-0.190859 0 0
-0.187024 0 0
-0.187024 0 0
-0.183067 0 0
-0.183067 0 0
-0.178988 0 0
-0.178988 0 0
-0.174787 0 0
-0.174787 0 0
-0.170464 0 0
-0.170464 0 0
-0.16602 0 0
-0.16602 0 0
-0.161454 0 0
-0.161454 0 0
-0.156766 0 0
-0.156766 0 0
-0.151957 0 0
-0.151957 0 0
-0.147026 0 0
-0.147026 0 0
-0.141973 0 0
-0.141973 0 0
-0.136798 0 0
-0.136798 0 0
-0.131501 0 0
-0.131501 0 0
-0.126083 0 0
-0.126083 0 0
-0.120543 0 0
-0.120543 0 0
-0.114881 0 0
-0.114881 0 0
-0.109097 0 0
-0.109097 0 0
-0.103192 0 0
-0.103192 0 0
-0.0971648 0 0
-0.0971648 0 0
-0.0910159 0 0
-0.0910159 0 0
-0.0847452 0 0
-0.0847452 0 0
-0.0783528 0 0
-0.0783528 0 0
-0.0718386 0 0
-0.0718386 0 0
-0.0652027 0 0
-0.0652027 0 0
-0.058445 0 0
-0.058445 0 0
-0.0515655 0 0
-0.0515655 0 0
-0.0445643 0 0
-0.0445643 0 0
-0.0374413 0 0
-0.0374413 0 0
-0.0301966 0 0
-0.0301966 0 0
-0.0228301 0 0
-0.0228301 0 0
-0.0153418 0 0
-0.0153418 0 0
-0.00773179 0 0
-0.00773179 0 0
0 0 0
