# vtk DataFile Version 3.0
#This file was generated by the deal.II library on 2025/4/1 at 13:04:21
ASCII
DATASET UNSTRUCTURED_GRID

FIELD FieldData 1
TIME 1 1 double
2.35867
POINTS 512 double
0 0 0
0.00390625 0 0
0.00390625 0 0
0.0078125 0 0
0.0078125 0 0
0.0117188 0 0
0.0117188 0 0
0.015625 0 0
0.015625 0 0
0.0195312 0 0
0.0195312 0 0
0.0234375 0 0
0.0234375 0 0
0.0273438 0 0
0.0273438 0 0
0.03125 0 0
0.03125 0 0
0.0351562 0 0
0.0351562 0 0
0.0390625 0 0
0.0390625 0 0
0.0429688 0 0
0.0429688 0 0
0.046875 0 0
0.046875 0 0
0.0507812 0 0
0.0507812 0 0
0.0546875 0 0
0.0546875 0 0
0.0585938 0 0
0.0585938 0 0
0.0625 0 0
0.0625 0 0
0.0664062 0 0
0.0664062 0 0
0.0703125 0 0
0.0703125 0 0
0.0742188 0 0
0.0742188 0 0
0.078125 0 0
0.078125 0 0
0.0820312 0 0
0.0820312 0 0
0.0859375 0 0
0.0859375 0 0
0.0898438 0 0
0.0898438 0 0
0.09375 0 0
0.09375 0 0
0.0976562 0 0
0.0976562 0 0
0.101562 0 0
0.101562 0 0
0.105469 0 0
0.105469 0 0
0.109375 0 0
0.109375 0 0
0.113281 0 0
0.113281 0 0
0.117188 0 0
0.117188 0 0
0.121094 0 0
0.121094 0 0
0.125 0 0
0.125 0 0
0.128906 0 0
0.128906 0 0
0.132812 0 0
0.132812 0 0
0.136719 0 0
0.136719 0 0
0.140625 0 0
0.140625 0 0
0.144531 0 0
0.144531 0 0
0.148438 0 0
0.148438 0 0
0.152344 0 0
0.152344 0 0
0.15625 0 0
0.15625 0 0
0.160156 0 0
0.160156 0 0
0.164062 0 0
0.164062 0 0
0.167969 0 0
0.167969 0 0
0.171875 0 0
0.171875 0 0
0.175781 0 0
0.175781 0 0
0.179688 0 0
0.179688 0 0
0.183594 0 0
0.183594 0 0
0.1875 0 0
0.1875 0 0
0.191406 0 0
0.191406 0 0
0.195312 0 0
0.195312 0 0
0.199219 0 0
0.199219 0 0
0.203125 0 0
0.203125 0 0
0.207031 0 0
0.207031 0 0
0.210938 0 0
0.210938 0 0
0.214844 0 0
0.214844 0 0
0.21875 0 0
0.21875 0 0
0.222656 0 0
0.222656 0 0
0.226562 0 0
0.226562 0 0
0.230469 0 0
0.230469 0 0
0.234375 0 0
0.234375 0 0
0.238281 0 0
0.238281 0 0
0.242188 0 0
0.242188 0 0
0.246094 0 0
0.246094 0 0
0.25 0 0
0.25 0 0
0.253906 0 0
0.253906 0 0
0.257812 0 0
0.257812 0 0
0.261719 0 0
0.261719 0 0
0.265625 0 0
0.265625 0 0
0.269531 0 0
0.269531 0 0
0.273438 0 0
0.273438 0 0
0.277344 0 0
0.277344 0 0
0.28125 0 0
0.28125 0 0
0.285156 0 0
0.285156 0 0
0.289062 0 0
0.289062 0 0
0.292969 0 0
0.292969 0 0
0.296875 0 0
0.296875 0 0
0.300781 0 0
0.300781 0 0
0.304688 0 0
0.304688 0 0
0.308594 0 0
0.308594 0 0
0.3125 0 0
0.3125 0 0
0.316406 0 0
0.316406 0 0
0.320312 0 0
0.320312 0 0
0.324219 0 0
0.324219 0 0
0.328125 0 0
0.328125 0 0
0.332031 0 0
0.332031 0 0
0.335938 0 0
0.335938 0 0
0.339844 0 0
0.339844 0 0
0.34375 0 0
0.34375 0 0
0.347656 0 0
0.347656 0 0
0.351562 0 0
0.351562 0 0
0.355469 0 0
0.355469 0 0
0.359375 0 0
0.359375 0 0
0.363281 0 0
0.363281 0 0
0.367188 0 0
0.367188 0 0
0.371094 0 0
0.371094 0 0
0.375 0 0
0.375 0 0
0.378906 0 0
0.378906 0 0
0.382812 0 0
0.382812 0 0
0.386719 0 0
0.386719 0 0
0.390625 0 0
0.390625 0 0
0.394531 0 0
0.394531 0 0
0.398438 0 0
0.398438 0 0
0.402344 0 0
0.402344 0 0
0.40625 0 0
0.40625 0 0
0.410156 0 0
0.410156 0 0
0.414062 0 0
0.414062 0 0
0.417969 0 0
0.417969 0 0
0.421875 0 0
0.421875 0 0
0.425781 0 0
0.425781 0 0
0.429688 0 0
0.429688 0 0
0.433594 0 0
0.433594 0 0
0.4375 0 0
0.4375 0 0
0.441406 0 0
0.441406 0 0
0.445312 0 0
0.445312 0 0
0.449219 0 0
0.449219 0 0
0.453125 0 0
0.453125 0 0
0.457031 0 0
0.457031 0 0
0.460938 0 0
0.460938 0 0
0.464844 0 0
0.464844 0 0
0.46875 0 0
0.46875 0 0
0.472656 0 0
0.472656 0 0
0.476562 0 0
0.476562 0 0
0.480469 0 0
0.480469 0 0
0.484375 0 0
0.484375 0 0
0.488281 0 0
0.488281 0 0
0.492188 0 0
0.492188 0 0
0.496094 0 0
0.496094 0 0
0.5 0 0
0.5 0 0
0.503906 0 0
0.503906 0 0
0.507812 0 0
0.507812 0 0
0.511719 0 0
0.511719 0 0
0.515625 0 0
0.515625 0 0
0.519531 0 0
0.519531 0 0
0.523438 0 0
0.523438 0 0
0.527344 0 0
0.527344 0 0
0.53125 0 0
0.53125 0 0
0.535156 0 0
0.535156 0 0
0.539062 0 0
0.539062 0 0
0.542969 0 0
0.542969 0 0
0.546875 0 0
0.546875 0 0
0.550781 0 0
0.550781 0 0
0.554688 0 0
0.554688 0 0
0.558594 0 0
0.558594 0 0
0.5625 0 0
0.5625 0 0
0.566406 0 0
0.566406 0 0
0.570312 0 0
0.570312 0 0
0.574219 0 0
0.574219 0 0
0.578125 0 0
0.578125 0 0
0.582031 0 0
0.582031 0 0
0.585938 0 0
0.585938 0 0
0.589844 0 0
0.589844 0 0
0.59375 0 0
0.59375 0 0
0.597656 0 0
0.597656 0 0
0.601562 0 0
0.601562 0 0
0.605469 0 0
0.605469 0 0
0.609375 0 0
0.609375 0 0
0.613281 0 0
0.613281 0 0
0.617188 0 0
0.617188 0 0
0.621094 0 0
0.621094 0 0
0.625 0 0
0.625 0 0
0.628906 0 0
0.628906 0 0
0.632812 0 0
0.632812 0 0
0.636719 0 0
0.636719 0 0
0.640625 0 0
0.640625 0 0
0.644531 0 0
0.644531 0 0
0.648438 0 0
0.648438 0 0
0.652344 0 0
0.652344 0 0
0.65625 0 0
0.65625 0 0
0.660156 0 0
0.660156 0 0
0.664062 0 0
0.664062 0 0
0.667969 0 0
0.667969 0 0
0.671875 0 0
0.671875 0 0
0.675781 0 0
0.675781 0 0
0.679688 0 0
0.679688 0 0
0.683594 0 0
0.683594 0 0
0.6875 0 0
0.6875 0 0
0.691406 0 0
0.691406 0 0
0.695312 0 0
0.695312 0 0
0.699219 0 0
0.699219 0 0
0.703125 0 0
0.703125 0 0
0.707031 0 0
0.707031 0 0
0.710938 0 0
0.710938 0 0
0.714844 0 0
0.714844 0 0
0.71875 0 0
0.71875 0 0
0.722656 0 0
0.722656 0 0
0.726562 0 0
0.726562 0 0
0.730469 0 0
0.730469 0 0
0.734375 0 0
0.734375 0 0
0.738281 0 0
0.738281 0 0
0.742188 0 0
0.742188 0 0
0.746094 0 0
0.746094 0 0
0.75 0 0
0.75 0 0
0.753906 0 0
0.753906 0 0
0.757812 0 0
0.757812 0 0
0.761719 0 0
0.761719 0 0
0.765625 0 0
0.765625 0 0
0.769531 0 0
0.769531 0 0
0.773438 0 0
0.773438 0 0
0.777344 0 0
0.777344 0 0
0.78125 0 0
0.78125 0 0
0.785156 0 0
0.785156 0 0
0.789062 0 0
0.789062 0 0
0.792969 0 0
0.792969 0 0
0.796875 0 0
0.796875 0 0
0.800781 0 0
0.800781 0 0
0.804688 0 0
0.804688 0 0
0.808594 0 0
0.808594 0 0
0.8125 0 0
0.8125 0 0
0.816406 0 0
0.816406 0 0
0.820312 0 0
0.820312 0 0
0.824219 0 0
0.824219 0 0
0.828125 0 0
0.828125 0 0
0.832031 0 0
0.832031 0 0
0.835938 0 0
0.835938 0 0
0.839844 0 0
0.839844 0 0
0.84375 0 0
0.84375 0 0
0.847656 0 0
0.847656 0 0
0.851562 0 0
0.851562 0 0
0.855469 0 0
0.855469 0 0
0.859375 0 0
0.859375 0 0
0.863281 0 0
0.863281 0 0
0.867188 0 0
0.867188 0 0
0.871094 0 0
0.871094 0 0
0.875 0 0
0.875 0 0
0.878906 0 0
0.878906 0 0
0.882812 0 0
0.882812 0 0
0.886719 0 0
0.886719 0 0
0.890625 0 0
0.890625 0 0
0.894531 0 0
0.894531 0 0
0.898438 0 0
0.898438 0 0
0.902344 0 0
0.902344 0 0
0.90625 0 0
0.90625 0 0
0.910156 0 0
0.910156 0 0
0.914062 0 0
0.914062 0 0
0.917969 0 0
0.917969 0 0
0.921875 0 0
0.921875 0 0
0.925781 0 0
0.925781 0 0
0.929688 0 0
0.929688 0 0
0.933594 0 0
0.933594 0 0
0.9375 0 0
0.9375 0 0
0.941406 0 0
0.941406 0 0
0.945312 0 0
0.945312 0 0
0.949219 0 0
0.949219 0 0
0.953125 0 0
0.953125 0 0
0.957031 0 0
0.957031 0 0
0.960938 0 0
0.960938 0 0
0.964844 0 0
0.964844 0 0
0.96875 0 0
0.96875 0 0
0.972656 0 0
0.972656 0 0
0.976562 0 0
0.976562 0 0
0.980469 0 0
0.980469 0 0
0.984375 0 0
0.984375 0 0
0.988281 0 0
0.988281 0 0
0.992188 0 0
0.992188 0 0
0.996094 0 0
0.996094 0 0
1 0 0

CELLS 256 768
2	0	1
2	2	3
2	4	5
2	6	7
2	8	9
2	10	11
2	12	13
2	14	15
2	16	17
2	18	19
2	20	21
2	22	23
2	24	25
2	26	27
2	28	29
2	30	31
2	32	33
2	34	35
2	36	37
2	38	39
2	40	41
2	42	43
2	44	45
2	46	47
2	48	49
2	50	51
2	52	53
2	54	55
2	56	57
2	58	59
2	60	61
2	62	63
2	64	65
2	66	67
2	68	69
2	70	71
2	72	73
2	74	75
2	76	77
2	78	79
2	80	81
2	82	83
2	84	85
2	86	87
2	88	89
2	90	91
2	92	93
2	94	95
2	96	97
2	98	99
2	100	101
2	102	103
2	104	105
2	106	107
2	108	109
2	110	111
2	112	113
2	114	115
2	116	117
2	118	119
2	120	121
2	122	123
2	124	125
2	126	127
2	128	129
2	130	131
2	132	133
2	134	135
2	136	137
2	138	139
2	140	141
2	142	143
2	144	145
2	146	147
2	148	149
2	150	151
2	152	153
2	154	155
2	156	157
2	158	159
2	160	161
2	162	163
2	164	165
2	166	167
2	168	169
2	170	171
2	172	173
2	174	175
2	176	177
2	178	179
2	180	181
2	182	183
2	184	185
2	186	187
2	188	189
2	190	191
2	192	193
2	194	195
2	196	197
2	198	199
2	200	201
2	202	203
2	204	205
2	206	207
2	208	209
2	210	211
2	212	213
2	214	215
2	216	217
2	218	219
2	220	221
2	222	223
2	224	225
2	226	227
2	228	229
2	230	231
2	232	233
2	234	235
2	236	237
2	238	239
2	240	241
2	242	243
2	244	245
2	246	247
2	248	249
2	250	251
2	252	253
2	254	255
2	256	257
2	258	259
2	260	261
2	262	263
2	264	265
2	266	267
2	268	269
2	270	271
2	272	273
2	274	275
2	276	277
2	278	279
2	280	281
2	282	283
2	284	285
2	286	287
2	288	289
2	290	291
2	292	293
2	294	295
2	296	297
2	298	299
2	300	301
2	302	303
2	304	305
2	306	307
2	308	309
2	310	311
2	312	313
2	314	315
2	316	317
2	318	319
2	320	321
2	322	323
2	324	325
2	326	327
2	328	329
2	330	331
2	332	333
2	334	335
2	336	337
2	338	339
2	340	341
2	342	343
2	344	345
2	346	347
2	348	349
2	350	351
2	352	353
2	354	355
2	356	357
2	358	359
2	360	361
2	362	363
2	364	365
2	366	367
2	368	369
2	370	371
2	372	373
2	374	375
2	376	377
2	378	379
2	380	381
2	382	383
2	384	385
2	386	387
2	388	389
2	390	391
2	392	393
2	394	395
2	396	397
2	398	399
2	400	401
2	402	403
2	404	405
2	406	407
2	408	409
2	410	411
2	412	413
2	414	415
2	416	417
2	418	419
2	420	421
2	422	423
2	424	425
2	426	427
2	428	429
2	430	431
2	432	433
2	434	435
2	436	437
2	438	439
2	440	441
2	442	443
2	444	445
2	446	447
2	448	449
2	450	451
2	452	453
2	454	455
2	456	457
2	458	459
2	460	461
2	462	463
2	464	465
2	466	467
2	468	469
2	470	471
2	472	473
2	474	475
2	476	477
2	478	479
2	480	481
2	482	483
2	484	485
2	486	487
2	488	489
2	490	491
2	492	493
2	494	495
2	496	497
2	498	499
2	500	501
2	502	503
2	504	505
2	506	507
2	508	509
2	510	511

CELL_TYPES 256
 3 3 3 3 3 3 3 3 3 3 3 3 3 3 3 3 3 3 3 3 3 3 3 3 3 3 3 3 3 3 3 3 3 3 3 3 3 3 3 3 3 3 3 3 3 3 3 3 3 3 3 3 3 3 3 3 3 3 3 3 3 3 3 3 3 3 3 3 3 3 3 3 3 3 3 3 3 3 3 3 3 3 3 3 3 3 3 3 3 3 3 3 3 3 3 3 3 3 3 3 3 3 3 3 3 3 3 3 3 3 3 3 3 3 3 3 3 3 3 3 3 3 3 3 3 3 3 3 3 3 3 3 3 3 3 3 3 3 3 3 3 3 3 3 3 3 3 3 3 3 3 3 3 3 3 3 3 3 3 3 3 3 3 3 3 3 3 3 3 3 3 3 3 3 3 3 3 3 3 3 3 3 3 3 3 3 3 3 3 3 3 3 3 3 3 3 3 3 3 3 3 3 3 3 3 3 3 3 3 3 3 3 3 3 3 3 3 3 3 3 3 3 3 3 3 3 3 3 3 3 3 3 3 3 3 3 3 3 3 3 3 3 3 3 3 3 3 3 3 3 3 3 3 3 3 3
POINT_DATA 512
VECTORS displacement double
0 0 0
0.00275177 0 0
0.00275177 0 0
0.00548201 0 0
0.00548201 0 0
0.00819072 0 0
0.00819072 0 0
0.0108779 0 0
0.0108779 0 0
0.0135436 0 0
0.0135436 0 0
0.0161877 0 0
0.0161877 0 0
0.0188103 0 0
0.0188103 0 0
0.0214114 0 0
0.0214114 0 0
0.0239909 0 0
0.0239909 0 0
0.0265489 0 0
0.0265489 0 0
0.0290854 0 0
0.0290854 0 0
0.0316004 0 0
0.0316004 0 0
0.0340938 0 0
0.0340938 0 0
0.0365657 0 0
0.0365657 0 0
0.039016 0 0
0.039016 0 0
0.0414448 0 0
0.0414448 0 0
0.0438521 0 0
0.0438521 0 0
0.0462378 0 0
0.0462378 0 0
0.0486021 0 0
0.0486021 0 0
0.0509447 0 0
0.0509447 0 0
0.0532659 0 0
0.0532659 0 0
0.0555655 0 0
0.0555655 0 0
0.0578435 0 0
0.0578435 0 0
0.0601 0 0
0.0601 0 0
0.062335 0 0
0.062335 0 0
0.0645485 0 0
0.0645485 0 0
0.0667404 0 0
0.0667404 0 0
0.0689107 0 0
0.0689107 0 0
0.0710596 0 0
0.0710596 0 0
0.0731868 0 0
0.0731868 0 0
0.0752926 0 0
0.0752926 0 0
0.0773768 0 0
0.0773768 0 0
0.0794394 0 0
0.0794394 0 0
0.0814805 0 0
0.0814805 0 0
0.0835001 0 0
0.0835001 0 0
0.0854981 0 0
0.0854981 0 0
0.0874745 0 0
0.0874745 0 0
0.0894294 0 0
0.0894294 0 0
0.0913628 0 0
0.0913628 0 0
0.0932746 0 0
0.0932746 0 0
0.0951649 0 0
0.0951649 0 0
0.0970336 0 0
0.0970336 0 0
0.0988807 0 0
0.0988807 0 0
0.100706 0 0
0.100706 0 0
0.10251 0 0
0.10251 0 0
0.104293 0 0
0.104293 0 0
0.106054 0 0
0.106054 0 0
0.107793 0 0
0.107793 0 0
0.109511 0 0
0.109511 0 0
0.111207 0 0
0.111207 0 0
0.112882 0 0
0.112882 0 0
0.114535 0 0
0.114535 0 0
0.116167 0 0
0.116167 0 0
0.117777 0 0
0.117777 0 0
0.119365 0 0
0.119365 0 0
0.120932 0 0
0.120932 0 0
0.122477 0 0
0.122477 0 0
0.124001 0 0
0.124001 0 0
0.125503 0 0
0.125503 0 0
0.126984 0 0
0.126984 0 0
0.128443 0 0
0.128443 0 0
0.12988 0 0
0.12988 0 0
0.131296 0 0
0.131296 0 0
0.132691 0 0
0.132691 0 0
0.134063 0 0
0.134063 0 0
0.135415 0 0
0.135415 0 0
0.136744 0 0
0.136744 0 0
0.138052 0 0
0.138052 0 0
0.139339 0 0
0.139339 0 0
0.140603 0 0
0.140603 0 0
0.141847 0 0
0.141847 0 0
0.143068 0 0
0.143068 0 0
0.144268 0 0
0.144268 0 0
0.145447 0 0
0.145447 0 0
0.146604 0 0
0.146604 0 0
0.147739 0 0
0.147739 0 0
0.148853 0 0
0.148853 0 0
0.149945 0 0
0.149945 0 0
0.151016 0 0
0.151016 0 0
0.152065 0 0
0.152065 0 0
0.153092 0 0
0.153092 0 0
0.154098 0 0
0.154098 0 0
0.155082 0 0
0.155082 0 0
0.156044 0 0
0.156044 0 0
0.156985 0 0
0.156985 0 0
0.157905 0 0
0.157905 0 0
0.158802 0 0
0.158802 0 0
0.159678 0 0
0.159678 0 0
0.160533 0 0
0.160533 0 0
0.161366 0 0
0.161366 0 0
0.162177 0 0
0.162177 0 0
0.162967 0 0
0.162967 0 0
0.163735 0 0
0.163735 0 0
0.164481 0 0
0.164481 0 0
0.165206 0 0
0.165206 0 0
0.165909 0 0
0.165909 0 0
0.166591 0 0
0.166591 0 0
0.167251 0 0
0.167251 0 0
0.167889 0 0
0.167889 0 0
0.168506 0 0
0.168506 0 0
0.169101 0 0
0.169101 0 0
0.169674 0 0
0.169674 0 0
0.170226 0 0
0.170226 0 0
0.170756 0 0
0.170756 0 0
0.171265 0 0
0.171265 0 0
0.171752 0 0
0.171752 0 0
0.172217 0 0
0.172217 0 0
0.17266 0 0
0.17266 0 0
0.173083 0 0
0.173083 0 0
0.173483 0 0
0.173483 0 0
0.173862 0 0
0.173862 0 0
0.174219 0 0
0.174219 0 0
0.174554 0 0
0.174554 0 0
0.174868 0 0
0.174868 0 0
0.17516 0 0
0.17516 0 0
0.175431 0 0
0.175431 0 0
0.17568 0 0
0.17568 0 0
0.175907 0 0
0.175907 0 0
0.176113 0 0
0.176113 0 0
0.176297 0 0
0.176297 0 0
0.176459 0 0
0.176459 0 0
0.1766 0 0
0.1766 0 0
0.176719 0 0
0.176719 0 0
0.176816 0 0
0.176816 0 0
0.176892 0 0
0.176892 0 0
0.176946 0 0
0.176946 0 0
0.176978 0 0
0.176978 0 0
0.176989 0 0
0.176989 0 0
0.176978 0 0
0.176978 0 0
0.176946 0 0
0.176946 0 0
0.176892 0 0
0.176892 0 0
0.176816 0 0
0.176816 0 0
0.176719 0 0
0.176719 0 0
0.1766 0 0
0.1766 0 0
0.176459 0 0
0.176459 0 0
0.176297 0 0
0.176297 0 0
0.176113 0 0
0.176113 0 0
0.175907 0 0
0.175907 0 0
0.17568 0 0
0.17568 0 0
0.175431 0 0
0.175431 0 0
0.17516 0 0
0.17516 0 0
0.174868 0 0
0.174868 0 0
0.174554 0 0
0.174554 0 0
0.174219 0 0
0.174219 0 0
0.173862 0 0
0.173862 0 0
0.173483 0 0
0.173483 0 0
0.173083 0 0
0.173083 0 0
0.17266 0 0
0.17266 0 0
0.172217 0 0
0.172217 0 0
0.171752 0 0
0.171752 0 0
0.171265 0 0
0.171265 0 0
0.170756 0 0
0.170756 0 0
0.170226 0 0
0.170226 0 0
0.169674 0 0
0.169674 0 0
0.169101 0 0
0.169101 0 0
0.168506 0 0
0.168506 0 0
0.167889 0 0
0.167889 0 0
0.167251 0 0
0.167251 0 0
0.166591 0 0
0.166591 0 0
0.165909 0 0
0.165909 0 0
0.165206 0 0
0.165206 0 0
0.164481 0 0
0.164481 0 0
0.163735 0 0
0.163735 0 0
0.162967 0 0
0.162967 0 0
0.162177 0 0
0.162177 0 0
0.161366 0 0
0.161366 0 0
0.160533 0 0
0.160533 0 0
0.159678 0 0
0.159678 0 0
0.158802 0 0
0.158802 0 0
0.157905 0 0
0.157905 0 0
0.156985 0 0
0.156985 0 0
0.156044 0 0
0.156044 0 0
0.155082 0 0
0.155082 0 0
0.154098 0 0
0.154098 0 0
0.153092 0 0
0.153092 0 0
0.152065 0 0
0.152065 0 0
0.151016 0 0
0.151016 0 0
0.149945 0 0
0.149945 0 0
0.148853 0 0
0.148853 0 0
0.147739 0 0
0.147739 0 0
0.146604 0 0
0.146604 0 0
0.145447 0 0
0.145447 0 0
0.144268 0 0
0.144268 0 0
0.143068 0 0
0.143068 0 0
0.141847 0 0
0.141847 0 0
0.140603 0 0
0.140603 0 0
0.139339 0 0
0.139339 0 0
0.138052 0 0
0.138052 0 0
0.136744 0 0
0.136744 0 0
0.135415 0 0
0.135415 0 0
0.134063 0 0
0.134063 0 0
0.132691 0 0
0.132691 0 0
0.131296 0 0
0.131296 0 0
0.12988 0 0
0.12988 0 0
0.128443 0 0
0.128443 0 0
0.126984 0 0
0.126984 0 0
0.125503 0 0
0.125503 0 0
0.124001 0 0
0.124001 0 0
0.122477 0 0
0.122477 0 0
0.120932 0 0
0.120932 0 0
0.119365 0 0
0.119365 0 0
0.117777 0 0
0.117777 0 0
0.116167 0 0
0.116167 0 0
0.114535 0 0
0.114535 0 0
0.112882 0 0
0.112882 0 0
0.111207 0 0
0.111207 0 0
0.109511 0 0
0.109511 0 0
0.107793 0 0
0.107793 0 0
0.106054 0 0
0.106054 0 0
0.104293 0 0
0.104293 0 0
0.10251 0 0
0.10251 0 0
0.100706 0 0
0.100706 0 0
0.0988807 0 0
0.0988807 0 0
0.0970336 0 0
0.0970336 0 0
0.0951649 0 0
0.0951649 0 0
0.0932746 0 0
0.0932746 0 0
0.0913628 0 0
0.0913628 0 0
0.0894294 0 0
0.0894294 0 0
0.0874745 0 0
0.0874745 0 0
0.0854981 0 0
0.0854981 0 0
0.0835001 0 0
0.0835001 0 0
0.0814805 0 0
0.0814805 0 0
0.0794394 0 0
0.0794394 0 0
0.0773768 0 0
0.0773768 0 0
0.0752926 0 0
0.0752926 0 0
0.0731868 0 0
0.0731868 0 0
0.0710596 0 0
0.0710596 0 0
0.0689107 0 0
0.0689107 0 0
0.0667404 0 0
0.0667404 0 0
0.0645485 0 0
0.0645485 0 0
0.062335 0 0
0.062335 0 0
0.0601 0 0
0.0601 0 0
0.0578435 0 0
0.0578435 0 0
0.0555655 0 0
0.0555655 0 0
0.0532659 0 0
0.0532659 0 0
0.0509447 0 0
0.0509447 0 0
0.0486021 0 0
0.0486021 0 0
0.0462378 0 0
0.0462378 0 0
0.0438521 0 0
0.0438521 0 0
0.0414448 0 0
0.0414448 0 0
0.039016 0 0
0.039016 0 0
0.0365657 0 0
0.0365657 0 0
0.0340938 0 0
0.0340938 0 0
0.0316004 0 0
0.0316004 0 0
0.0290854 0 0
0.0290854 0 0
0.0265489 0 0
0.0265489 0 0
0.0239909 0 0
0.0239909 0 0
0.0214114 0 0
0.0214114 0 0
0.0188103 0 0
0.0188103 0 0
0.0161877 0 0
0.0161877 0 0
0.0135436 0 0
0.0135436 0 0
0.0108779 0 0
0.0108779 0 0
0.00819072 0 0
0.00819072 0 0
0.00548201 0 0
0.00548201 0 0
0.00275177 0 0
0.00275177 0 0
0 0 0
VECTORS velocity double
0 0 0
-0.00278287 0 0
-0.00278287 0 0
-0.0055442 0 0
-0.0055442 0 0
-0.00828397 0 0
-0.00828397 0 0
-0.0110022 0 0
-0.0110022 0 0
-0.0136988 0 0
-0.0136988 0 0
-0.0163739 0 0
-0.0163739 0 0
-0.0190275 0 0
-0.0190275 0 0
-0.0216595 0 0
-0.0216595 0 0
-0.0242699 0 0
-0.0242699 0 0
-0.0268587 0 0
-0.0268587 0 0
-0.029426 0 0
-0.029426 0 0
-0.0319717 0 0
-0.0319717 0 0
-0.0344958 0 0
-0.0344958 0 0
-0.0369984 0 0
-0.0369984 0 0
-0.0394793 0 0
-0.0394793 0 0
-0.0419387 0 0
-0.0419387 0 0
-0.0443765 0 0
-0.0443765 0 0
-0.0467927 0 0
-0.0467927 0 0
-0.0491873 0 0
-0.0491873 0 0
-0.0515604 0 0
-0.0515604 0 0
-0.0539118 0 0
-0.0539118 0 0
-0.0562416 0 0
-0.0562416 0 0
-0.0585498 0 0
-0.0585498 0 0
-0.0608364 0 0
-0.0608364 0 0
-0.0631014 0 0
-0.0631014 0 0
-0.0653448 0 0
-0.0653448 0 0
-0.0675666 0 0
-0.0675666 0 0
-0.0697667 0 0
-0.0697667 0 0
-0.0719453 0 0
-0.0719453 0 0
-0.0741021 0 0
-0.0741021 0 0
-0.0762374 0 0
-0.0762374 0 0
-0.078351 0 0
-0.078351 0 0
-0.0804429 0 0
-0.0804429 0 0
-0.0825132 0 0
-0.0825132 0 0
-0.0845619 0 0
-0.0845619 0 0
-0.0865889 0 0
-0.0865889 0 0
-0.0885942 0 0
-0.0885942 0 0
-0.0905778 0 0
-0.0905778 0 0
-0.0925398 0 0
-0.0925398 0 0
-0.0944801 0 0
-0.0944801 0 0
-0.0963987 0 0
-0.0963987 0 0
-0.0982956 0 0
-0.0982956 0 0
-0.100171 0 0
-0.100171 0 0
-0.102024 0 0
-0.102024 0 0
-0.103856 0 0
-0.103856 0 0
-0.105666 0 0
-0.105666 0 0
-0.107454 0 0
-0.107454 0 0
-0.109221 0 0
-0.109221 0 0
-0.110966 0 0
-0.110966 0 0
-0.112689 0 0
-0.112689 0 0
-0.11439 0 0
-0.11439 0 0
-0.11607 0 0
-0.11607 0 0
-0.117728 0 0
-0.117728 0 0
-0.119364 0 0
-0.119364 0 0
-0.120978 0 0
-0.120978 0 0
-0.12257 0 0
-0.12257 0 0
-0.124141 0 0
-0.124141 0 0
-0.12569 0 0
-0.12569 0 0
-0.127217 0 0
-0.127217 0 0
-0.128722 0 0
-0.128722 0 0
-0.130206 0 0
-0.130206 0 0
-0.131667 0 0
-0.131667 0 0
-0.133107 0 0
-0.133107 0 0
-0.134525 0 0
-0.134525 0 0
-0.135921 0 0
-0.135921 0 0
-0.137295 0 0
-0.137295 0 0
-0.138647 0 0
-0.138647 0 0
-0.139978 0 0
-0.139978 0 0
-0.141286 0 0
-0.141286 0 0
-0.142573 0 0
-0.142573 0 0
-0.143837 0 0
-0.143837 0 0
-0.14508 0 0
-0.14508 0 0
-0.146301 0 0
-0.146301 0 0
-0.1475 0 0
-0.1475 0 0
-0.148677 0 0
-0.148677 0 0
-0.149832 0 0
-0.149832 0 0
-0.150966 0 0
-0.150966 0 0
-0.152077 0 0
-0.152077 0 0
-0.153166 0 0
-0.153166 0 0
-0.154233 0 0
-0.154233 0 0
-0.155279 0 0
-0.155279 0 0
-0.156302 0 0
-0.156302 0 0
-0.157304 0 0
-0.157304 0 0
-0.158283 0 0
-0.158283 0 0
-0.159241 0 0
-0.159241 0 0
-0.160176 0 0
-0.160176 0 0
-0.16109 0 0
-0.16109 0 0
-0.161981 0 0
-0.161981 0 0
-0.162851 0 0
-0.162851 0 0
-0.163699 0 0
-0.163699 0 0
-0.164524 0 0
-0.164524 0 0
-0.165328 0 0
-0.165328 0 0
-0.166109 0 0
-0.166109 0 0
-0.166869 0 0
-0.166869 0 0
-0.167607 0 0
-0.167607 0 0
-0.168322 0 0
-0.168322 0 0
-0.169016 0 0
-0.169016 0 0
-0.169687 0 0
-0.169687 0 0
-0.170337 0 0
-0.170337 0 0
-0.170964 0 0
-0.170964 0 0
-0.17157 0 0
-0.17157 0 0
-0.172153 0 0
-0.172153 0 0
-0.172715 0 0
-0.172715 0 0
-0.173254 0 0
-0.173254 0 0
-0.173772 0 0
-0.173772 0 0
-0.174267 0 0
-0.174267 0 0
-0.174741 0 0
-0.174741 0 0
-0.175192 0 0
-0.175192 0 0
-0.175621 0 0
-0.175621 0 0
-0.176029 0 0
-0.176029 0 0
-0.176414 0 0
-0.176414 0 0
-0.176777 0 0
-0.176777 0 0
-0.177119 0 0
-0.177119 0 0
-0.177438 0 0
-0.177438 0 0
-0.177735 0 0
-0.177735 0 0
-0.17801 0 0
-0.17801 0 0
-0.178264 0 0
-0.178264 0 0
-0.178495 0 0
-0.178495 0 0
-0.178704 0 0
-0.178704 0 0
-0.178891 0 0
-0.178891 0 0
-0.179056 0 0
-0.179056 0 0
-0.179199 0 0
-0.179199 0 0
-0.17932 0 0
-0.17932 0 0
-0.179419 0 0
-0.179419 0 0
-0.179496 0 0
-0.179496 0 0
-0.179552 0 0
-0.179552 0 0
-0.179585 0 0
-0.179585 0 0
-0.179596 0 0
-0.179596 0 0
-0.179585 0 0
-0.179585 0 0
-0.179552 0 0
-0.179552 0 0
-0.179496 0 0
-0.179496 0 0
-0.179419 0 0
-0.179419 0 0
-0.17932 0 0
-0.17932 0 0
-0.179199 0 0
-0.179199 0 0
-0.179056 0 0
-0.179056 0 0
-0.178891 0 0
-0.178891 0 0
-0.178704 0 0
-0.178704 0 0
-0.178495 0 0
-0.178495 0 0
-0.178264 0 0
-0.178264 0 0
-0.17801 0 0
-0.17801 0 0
-0.177735 0 0
-0.177735 0 0
-0.177438 0 0
-0.177438 0 0
-0.177119 0 0
-0.177119 0 0
-0.176777 0 0
-0.176777 0 0
-0.176414 0 0
-0.176414 0 0
-0.176029 0 0
-0.176029 0 0
-0.175621 0 0
-0.175621 0 0
-0.175192 0 0
-0.175192 0 0
-0.174741 0 0
-0.174741 0 0
-0.174267 0 0
-0.174267 0 0
-0.173772 0 0
-0.173772 0 0
-0.173254 0 0
-0.173254 0 0
-0.172715 0 0
-0.172715 0 0
-0.172153 0 0
-0.172153 0 0
-0.17157 0 0
-0.17157 0 0
-0.170964 0 0
-0.170964 0 0
-0.170337 0 0
-0.170337 0 0
-0.169687 0 0
-0.169687 0 0
-0.169016 0 0
-0.169016 0 0
-0.168322 0 0
-0.168322 0 0
-0.167607 0 0
-0.167607 0 0
-0.166869 0 0
-0.166869 0 0
-0.166109 0 0
-0.166109 0 0
-0.165328 0 0
-0.165328 0 0
-0.164524 0 0
-0.164524 0 0
-0.163699 0 0
-0.163699 0 0
-0.162851 0 0
-0.162851 0 0
-0.161981 0 0
-0.161981 0 0
-0.16109 0 0
-0.16109 0 0
-0.160176 0 0
-0.160176 0 0
-0.159241 0 0
-0.159241 0 0
-0.158283 0 0
-0.158283 0 0
-0.157304 0 0
-0.157304 0 0
-0.156302 0 0
-0.156302 0 0
-0.155279 0 0
-0.155279 0 0
-0.154233 0 0
-0.154233 0 0
-0.153166 0 0
-0.153166 0 0
-0.152077 0 0
-0.152077 0 0
-0.150966 0 0
-0.150966 0 0
-0.149832 0 0
-0.149832 0 0
-0.148677 0 0
-0.148677 0 0
-0.1475 0 0
-0.1475 0 0
-0.146301 0 0
-0.146301 0 0
-0.14508 0 0
-0.14508 0 0
-0.143837 0 0
-0.143837 0 0
-0.142573 0 0
-0.142573 0 0
-0.141286 0 0
-0.141286 0 0
-0.139978 0 0
-0.139978 0 0
-0.138647 0 0
-0.138647 0 0
-0.137295 0 0
-0.137295 0 0
-0.135921 0 0
-0.135921 0 0
-0.134525 0 0
-0.134525 0 0
-0.133107 0 0
-0.133107 0 0
-0.131667 0 0
-0.131667 0 0
-0.130206 0 0
-0.130206 0 0
-0.128722 0 0
-0.128722 0 0
-0.127217 0 0
-0.127217 0 0
-0.12569 0 0
-0.12569 0 0
-0.124141 0 0
-0.124141 0 0
-0.12257 0 0
-0.12257 0 0
-0.120978 0 0
-0.120978 0 0
-0.119364 0 0
-0.119364 0 0
-0.117728 0 0
-0.117728 0 0
-0.11607 0 0
-0.11607 0 0
-0.11439 0 0
-0.11439 0 0
-0.112689 0 0
-0.112689 0 0
-0.110966 0 0
-0.110966 0 0
-0.109221 0 0
-0.109221 0 0
-0.107454 0 0
-0.107454 0 0
-0.105666 0 0
-0.105666 0 0
-0.103856 0 0
-0.103856 0 0
-0.102024 0 0
-0.102024 0 0
-0.100171 0 0
-0.100171 0 0
-0.0982956 0 0
-0.0982956 0 0
-0.0963987 0 0
-0.0963987 0 0
-0.0944801 0 0
-0.0944801 0 0
-0.0925398 0 0
-0.0925398 0 0
-0.0905778 0 0
-0.0905778 0 0
-0.0885942 0 0
-0.0885942 0 0
-0.0865889 0 0
-0.0865889 0 0
-0.0845619 0 0
-0.0845619 0 0
-0.0825132 0 0
-0.0825132 0 0
-0.0804429 0 0
-0.0804429 0 0
-0.078351 0 0
-0.078351 0 0
-0.0762374 0 0
-0.0762374 0 0
-0.0741021 0 0
-0.0741021 0 0
-0.0719453 0 0
-0.0719453 0 0
-0.0697667 0 0
-0.0697667 0 0
-0.0675666 0 0
-0.0675666 0 0
-0.0653448 0 0
-0.0653448 0 0
-0.0631014 0 0
-0.0631014 0 0
-0.0608364 0 0
-0.0608364 0 0
-0.0585498 0 0
-0.0585498 0 0
-0.0562416 0 0
-0.0562416 0 0
-0.0539118 0 0
-0.0539118 0 0
-0.0515604 0 0
-0.0515604 0 0
-0.0491873 0 0
-0.0491873 0 0
-0.0467927 0 0
-0.0467927 0 0
-0.0443765 0 0
-0.0443765 0 0
-0.0419387 0 0
-0.0419387 0 0
-0.0394793 0 0
-0.0394793 0 0
-0.0369984 0 0
-0.0369984 0 0
-0.0344958 0 0
-0.0344958 0 0
-0.0319717 0 0
-0.0319717 0 0
-0.029426 0 0
-0.029426 0 0
-0.0268587 0 0
-0.0268587 0 0
-0.0242699 0 0
-0.0242699 0 0
-0.0216595 0 0
-0.0216595 0 0
-0.0190275 0 0
-0.0190275 0 0
-0.0163739 0 0
-0.0163739 0 0
-0.0136988 0 0
-0.0136988 0 0
-0.0110022 0 0
-0.0110022 0 0
-0.00828397 0 0
-0.00828397 0 0
-0.0055442 0 0
-0.0055442 0 0
-0.00278287 0 0
-0.00278287 0 0
0 0 0
