# vtk DataFile Version 3.0
#This file was generated by the deal.II library on 2025/4/1 at 13:03:41
ASCII
DATASET UNSTRUCTURED_GRID

FIELD FieldData 1
TIME 1 1 double
1.29045
POINTS 512 double
0 0 0
0.00390625 0 0
0.00390625 0 0
0.0078125 0 0
0.0078125 0 0
0.0117188 0 0
0.0117188 0 0
0.015625 0 0
0.015625 0 0
0.0195312 0 0
0.0195312 0 0
0.0234375 0 0
0.0234375 0 0
0.0273438 0 0
0.0273438 0 0
0.03125 0 0
0.03125 0 0
0.0351562 0 0
0.0351562 0 0
0.0390625 0 0
0.0390625 0 0
0.0429688 0 0
0.0429688 0 0
0.046875 0 0
0.046875 0 0
0.0507812 0 0
0.0507812 0 0
0.0546875 0 0
0.0546875 0 0
0.0585938 0 0
0.0585938 0 0
0.0625 0 0
0.0625 0 0
0.0664062 0 0
0.0664062 0 0
0.0703125 0 0
0.0703125 0 0
0.0742188 0 0
0.0742188 0 0
0.078125 0 0
0.078125 0 0
0.0820312 0 0
0.0820312 0 0
0.0859375 0 0
0.0859375 0 0
0.0898438 0 0
0.0898438 0 0
0.09375 0 0
0.09375 0 0
0.0976562 0 0
0.0976562 0 0
0.101562 0 0
0.101562 0 0
0.105469 0 0
0.105469 0 0
0.109375 0 0
0.109375 0 0
0.113281 0 0
0.113281 0 0
0.117188 0 0
0.117188 0 0
0.121094 0 0
0.121094 0 0
0.125 0 0
0.125 0 0
0.128906 0 0
0.128906 0 0
0.132812 0 0
0.132812 0 0
0.136719 0 0
0.136719 0 0
0.140625 0 0
0.140625 0 0
0.144531 0 0
0.144531 0 0
0.148438 0 0
0.148438 0 0
0.152344 0 0
0.152344 0 0
0.15625 0 0
0.15625 0 0
0.160156 0 0
0.160156 0 0
0.164062 0 0
0.164062 0 0
0.167969 0 0
0.167969 0 0
0.171875 0 0
0.171875 0 0
0.175781 0 0
0.175781 0 0
0.179688 0 0
0.179688 0 0
0.183594 0 0
0.183594 0 0
0.1875 0 0
0.1875 0 0
0.191406 0 0
0.191406 0 0
0.195312 0 0
0.195312 0 0
0.199219 0 0
0.199219 0 0
0.203125 0 0
0.203125 0 0
0.207031 0 0
0.207031 0 0
0.210938 0 0
0.210938 0 0
0.214844 0 0
0.214844 0 0
0.21875 0 0
0.21875 0 0
0.222656 0 0
0.222656 0 0
0.226562 0 0
0.226562 0 0
0.230469 0 0
0.230469 0 0
0.234375 0 0
0.234375 0 0
0.238281 0 0
0.238281 0 0
0.242188 0 0
0.242188 0 0
0.246094 0 0
0.246094 0 0
0.25 0 0
0.25 0 0
0.253906 0 0
0.253906 0 0
0.257812 0 0
0.257812 0 0
0.261719 0 0
0.261719 0 0
0.265625 0 0
0.265625 0 0
0.269531 0 0
0.269531 0 0
0.273438 0 0
0.273438 0 0
0.277344 0 0
0.277344 0 0
0.28125 0 0
0.28125 0 0
0.285156 0 0
0.285156 0 0
0.289062 0 0
0.289062 0 0
0.292969 0 0
0.292969 0 0
0.296875 0 0
0.296875 0 0
0.300781 0 0
0.300781 0 0
0.304688 0 0
0.304688 0 0
0.308594 0 0
0.308594 0 0
0.3125 0 0
0.3125 0 0
0.316406 0 0
0.316406 0 0
0.320312 0 0
0.320312 0 0
0.324219 0 0
0.324219 0 0
0.328125 0 0
0.328125 0 0
0.332031 0 0
0.332031 0 0
0.335938 0 0
0.335938 0 0
0.339844 0 0
0.339844 0 0
0.34375 0 0
0.34375 0 0
0.347656 0 0
0.347656 0 0
0.351562 0 0
0.351562 0 0
0.355469 0 0
0.355469 0 0
0.359375 0 0
0.359375 0 0
0.363281 0 0
0.363281 0 0
0.367188 0 0
0.367188 0 0
0.371094 0 0
0.371094 0 0
0.375 0 0
0.375 0 0
0.378906 0 0
0.378906 0 0
0.382812 0 0
0.382812 0 0
0.386719 0 0
0.386719 0 0
0.390625 0 0
0.390625 0 0
0.394531 0 0
0.394531 0 0
0.398438 0 0
0.398438 0 0
0.402344 0 0
0.402344 0 0
0.40625 0 0
0.40625 0 0
0.410156 0 0
0.410156 0 0
0.414062 0 0
0.414062 0 0
0.417969 0 0
0.417969 0 0
0.421875 0 0
0.421875 0 0
0.425781 0 0
0.425781 0 0
0.429688 0 0
0.429688 0 0
0.433594 0 0
0.433594 0 0
0.4375 0 0
0.4375 0 0
0.441406 0 0
0.441406 0 0
0.445312 0 0
0.445312 0 0
0.449219 0 0
0.449219 0 0
0.453125 0 0
0.453125 0 0
0.457031 0 0
0.457031 0 0
0.460938 0 0
0.460938 0 0
0.464844 0 0
0.464844 0 0
0.46875 0 0
0.46875 0 0
0.472656 0 0
0.472656 0 0
0.476562 0 0
0.476562 0 0
0.480469 0 0
0.480469 0 0
0.484375 0 0
0.484375 0 0
0.488281 0 0
0.488281 0 0
0.492188 0 0
0.492188 0 0
0.496094 0 0
0.496094 0 0
0.5 0 0
0.5 0 0
0.503906 0 0
0.503906 0 0
0.507812 0 0
0.507812 0 0
0.511719 0 0
0.511719 0 0
0.515625 0 0
0.515625 0 0
0.519531 0 0
0.519531 0 0
0.523438 0 0
0.523438 0 0
0.527344 0 0
0.527344 0 0
0.53125 0 0
0.53125 0 0
0.535156 0 0
0.535156 0 0
0.539062 0 0
0.539062 0 0
0.542969 0 0
0.542969 0 0
0.546875 0 0
0.546875 0 0
0.550781 0 0
0.550781 0 0
0.554688 0 0
0.554688 0 0
0.558594 0 0
0.558594 0 0
0.5625 0 0
0.5625 0 0
0.566406 0 0
0.566406 0 0
0.570312 0 0
0.570312 0 0
0.574219 0 0
0.574219 0 0
0.578125 0 0
0.578125 0 0
0.582031 0 0
0.582031 0 0
0.585938 0 0
0.585938 0 0
0.589844 0 0
0.589844 0 0
0.59375 0 0
0.59375 0 0
0.597656 0 0
0.597656 0 0
0.601562 0 0
0.601562 0 0
0.605469 0 0
0.605469 0 0
0.609375 0 0
0.609375 0 0
0.613281 0 0
0.613281 0 0
0.617188 0 0
0.617188 0 0
0.621094 0 0
0.621094 0 0
0.625 0 0
0.625 0 0
0.628906 0 0
0.628906 0 0
0.632812 0 0
0.632812 0 0
0.636719 0 0
0.636719 0 0
0.640625 0 0
0.640625 0 0
0.644531 0 0
0.644531 0 0
0.648438 0 0
0.648438 0 0
0.652344 0 0
0.652344 0 0
0.65625 0 0
0.65625 0 0
0.660156 0 0
0.660156 0 0
0.664062 0 0
0.664062 0 0
0.667969 0 0
0.667969 0 0
0.671875 0 0
0.671875 0 0
0.675781 0 0
0.675781 0 0
0.679688 0 0
0.679688 0 0
0.683594 0 0
0.683594 0 0
0.6875 0 0
0.6875 0 0
0.691406 0 0
0.691406 0 0
0.695312 0 0
0.695312 0 0
0.699219 0 0
0.699219 0 0
0.703125 0 0
0.703125 0 0
0.707031 0 0
0.707031 0 0
0.710938 0 0
0.710938 0 0
0.714844 0 0
0.714844 0 0
0.71875 0 0
0.71875 0 0
0.722656 0 0
0.722656 0 0
0.726562 0 0
0.726562 0 0
0.730469 0 0
0.730469 0 0
0.734375 0 0
0.734375 0 0
0.738281 0 0
0.738281 0 0
0.742188 0 0
0.742188 0 0
0.746094 0 0
0.746094 0 0
0.75 0 0
0.75 0 0
0.753906 0 0
0.753906 0 0
0.757812 0 0
0.757812 0 0
0.761719 0 0
0.761719 0 0
0.765625 0 0
0.765625 0 0
0.769531 0 0
0.769531 0 0
0.773438 0 0
0.773438 0 0
0.777344 0 0
0.777344 0 0
0.78125 0 0
0.78125 0 0
0.785156 0 0
0.785156 0 0
0.789062 0 0
0.789062 0 0
0.792969 0 0
0.792969 0 0
0.796875 0 0
0.796875 0 0
0.800781 0 0
0.800781 0 0
0.804688 0 0
0.804688 0 0
0.808594 0 0
0.808594 0 0
0.8125 0 0
0.8125 0 0
0.816406 0 0
0.816406 0 0
0.820312 0 0
0.820312 0 0
0.824219 0 0
0.824219 0 0
0.828125 0 0
0.828125 0 0
0.832031 0 0
0.832031 0 0
0.835938 0 0
0.835938 0 0
0.839844 0 0
0.839844 0 0
0.84375 0 0
0.84375 0 0
0.847656 0 0
0.847656 0 0
0.851562 0 0
0.851562 0 0
0.855469 0 0
0.855469 0 0
0.859375 0 0
0.859375 0 0
0.863281 0 0
0.863281 0 0
0.867188 0 0
0.867188 0 0
0.871094 0 0
0.871094 0 0
0.875 0 0
0.875 0 0
0.878906 0 0
0.878906 0 0
0.882812 0 0
0.882812 0 0
0.886719 0 0
0.886719 0 0
0.890625 0 0
0.890625 0 0
0.894531 0 0
0.894531 0 0
0.898438 0 0
0.898438 0 0
0.902344 0 0
0.902344 0 0
0.90625 0 0
0.90625 0 0
0.910156 0 0
0.910156 0 0
0.914062 0 0
0.914062 0 0
0.917969 0 0
0.917969 0 0
0.921875 0 0
0.921875 0 0
0.925781 0 0
0.925781 0 0
0.929688 0 0
0.929688 0 0
0.933594 0 0
0.933594 0 0
0.9375 0 0
0.9375 0 0
0.941406 0 0
0.941406 0 0
0.945312 0 0
0.945312 0 0
0.949219 0 0
0.949219 0 0
0.953125 0 0
0.953125 0 0
0.957031 0 0
0.957031 0 0
0.960938 0 0
0.960938 0 0
0.964844 0 0
0.964844 0 0
0.96875 0 0
0.96875 0 0
0.972656 0 0
0.972656 0 0
0.976562 0 0
0.976562 0 0
0.980469 0 0
0.980469 0 0
0.984375 0 0
0.984375 0 0
0.988281 0 0
0.988281 0 0
0.992188 0 0
0.992188 0 0
0.996094 0 0
0.996094 0 0
1 0 0

CELLS 256 768
2	0	1
2	2	3
2	4	5
2	6	7
2	8	9
2	10	11
2	12	13
2	14	15
2	16	17
2	18	19
2	20	21
2	22	23
2	24	25
2	26	27
2	28	29
2	30	31
2	32	33
2	34	35
2	36	37
2	38	39
2	40	41
2	42	43
2	44	45
2	46	47
2	48	49
2	50	51
2	52	53
2	54	55
2	56	57
2	58	59
2	60	61
2	62	63
2	64	65
2	66	67
2	68	69
2	70	71
2	72	73
2	74	75
2	76	77
2	78	79
2	80	81
2	82	83
2	84	85
2	86	87
2	88	89
2	90	91
2	92	93
2	94	95
2	96	97
2	98	99
2	100	101
2	102	103
2	104	105
2	106	107
2	108	109
2	110	111
2	112	113
2	114	115
2	116	117
2	118	119
2	120	121
2	122	123
2	124	125
2	126	127
2	128	129
2	130	131
2	132	133
2	134	135
2	136	137
2	138	139
2	140	141
2	142	143
2	144	145
2	146	147
2	148	149
2	150	151
2	152	153
2	154	155
2	156	157
2	158	159
2	160	161
2	162	163
2	164	165
2	166	167
2	168	169
2	170	171
2	172	173
2	174	175
2	176	177
2	178	179
2	180	181
2	182	183
2	184	185
2	186	187
2	188	189
2	190	191
2	192	193
2	194	195
2	196	197
2	198	199
2	200	201
2	202	203
2	204	205
2	206	207
2	208	209
2	210	211
2	212	213
2	214	215
2	216	217
2	218	219
2	220	221
2	222	223
2	224	225
2	226	227
2	228	229
2	230	231
2	232	233
2	234	235
2	236	237
2	238	239
2	240	241
2	242	243
2	244	245
2	246	247
2	248	249
2	250	251
2	252	253
2	254	255
2	256	257
2	258	259
2	260	261
2	262	263
2	264	265
2	266	267
2	268	269
2	270	271
2	272	273
2	274	275
2	276	277
2	278	279
2	280	281
2	282	283
2	284	285
2	286	287
2	288	289
2	290	291
2	292	293
2	294	295
2	296	297
2	298	299
2	300	301
2	302	303
2	304	305
2	306	307
2	308	309
2	310	311
2	312	313
2	314	315
2	316	317
2	318	319
2	320	321
2	322	323
2	324	325
2	326	327
2	328	329
2	330	331
2	332	333
2	334	335
2	336	337
2	338	339
2	340	341
2	342	343
2	344	345
2	346	347
2	348	349
2	350	351
2	352	353
2	354	355
2	356	357
2	358	359
2	360	361
2	362	363
2	364	365
2	366	367
2	368	369
2	370	371
2	372	373
2	374	375
2	376	377
2	378	379
2	380	381
2	382	383
2	384	385
2	386	387
2	388	389
2	390	391
2	392	393
2	394	395
2	396	397
2	398	399
2	400	401
2	402	403
2	404	405
2	406	407
2	408	409
2	410	411
2	412	413
2	414	415
2	416	417
2	418	419
2	420	421
2	422	423
2	424	425
2	426	427
2	428	429
2	430	431
2	432	433
2	434	435
2	436	437
2	438	439
2	440	441
2	442	443
2	444	445
2	446	447
2	448	449
2	450	451
2	452	453
2	454	455
2	456	457
2	458	459
2	460	461
2	462	463
2	464	465
2	466	467
2	468	469
2	470	471
2	472	473
2	474	475
2	476	477
2	478	479
2	480	481
2	482	483
2	484	485
2	486	487
2	488	489
2	490	491
2	492	493
2	494	495
2	496	497
2	498	499
2	500	501
2	502	503
2	504	505
2	506	507
2	508	509
2	510	511

CELL_TYPES 256
 3 3 3 3 3 3 3 3 3 3 3 3 3 3 3 3 3 3 3 3 3 3 3 3 3 3 3 3 3 3 3 3 3 3 3 3 3 3 3 3 3 3 3 3 3 3 3 3 3 3 3 3 3 3 3 3 3 3 3 3 3 3 3 3 3 3 3 3 3 3 3 3 3 3 3 3 3 3 3 3 3 3 3 3 3 3 3 3 3 3 3 3 3 3 3 3 3 3 3 3 3 3 3 3 3 3 3 3 3 3 3 3 3 3 3 3 3 3 3 3 3 3 3 3 3 3 3 3 3 3 3 3 3 3 3 3 3 3 3 3 3 3 3 3 3 3 3 3 3 3 3 3 3 3 3 3 3 3 3 3 3 3 3 3 3 3 3 3 3 3 3 3 3 3 3 3 3 3 3 3 3 3 3 3 3 3 3 3 3 3 3 3 3 3 3 3 3 3 3 3 3 3 3 3 3 3 3 3 3 3 3 3 3 3 3 3 3 3 3 3 3 3 3 3 3 3 3 3 3 3 3 3 3 3 3 3 3 3 3 3 3 3 3 3 3 3 3 3 3 3 3 3 3 3 3 3
POINT_DATA 512
VECTORS displacement double
0 0 0
0.0037304 0 0
0.0037304 0 0
0.00743147 0 0
0.00743147 0 0
0.0111032 0 0
0.0111032 0 0
0.0147456 0 0
0.0147456 0 0
0.0183587 0 0
0.0183587 0 0
0.0219425 0 0
0.0219425 0 0
0.025497 0 0
0.025497 0 0
0.0290221 0 0
0.0290221 0 0
0.0325179 0 0
0.0325179 0 0
0.0359844 0 0
0.0359844 0 0
0.0394215 0 0
0.0394215 0 0
0.0428294 0 0
0.0428294 0 0
0.0462079 0 0
0.0462079 0 0
0.0495571 0 0
0.0495571 0 0
0.0528769 0 0
0.0528769 0 0
0.0561675 0 0
0.0561675 0 0
0.0594287 0 0
0.0594287 0 0
0.0626606 0 0
0.0626606 0 0
0.0658632 0 0
0.0658632 0 0
0.0690365 0 0
0.0690365 0 0
0.0721805 0 0
0.0721805 0 0
0.0752951 0 0
0.0752951 0 0
0.0783805 0 0
0.0783805 0 0
0.0814365 0 0
0.0814365 0 0
0.0844632 0 0
0.0844632 0 0
0.0874605 0 0
0.0874605 0 0
0.0904286 0 0
0.0904286 0 0
0.0933674 0 0
0.0933674 0 0
0.0962768 0 0
0.0962768 0 0
0.0991569 0 0
0.0991569 0 0
0.102008 0 0
0.102008 0 0
0.104829 0 0
0.104829 0 0
0.107621 0 0
0.107621 0 0
0.110384 0 0
0.110384 0 0
0.113118 0 0
0.113118 0 0
0.115822 0 0
0.115822 0 0
0.118497 0 0
0.118497 0 0
0.121143 0 0
0.121143 0 0
0.123759 0 0
0.123759 0 0
0.126346 0 0
0.126346 0 0
0.128904 0 0
0.128904 0 0
0.131432 0 0
0.131432 0 0
0.133932 0 0
0.133932 0 0
0.136401 0 0
0.136401 0 0
0.138842 0 0
0.138842 0 0
0.141253 0 0
0.141253 0 0
0.143635 0 0
0.143635 0 0
0.145988 0 0
0.145988 0 0
0.148311 0 0
0.148311 0 0
0.150605 0 0
0.150605 0 0
0.15287 0 0
0.15287 0 0
0.155106 0 0
0.155106 0 0
0.157312 0 0
0.157312 0 0
0.159489 0 0
0.159489 0 0
0.161636 0 0
0.161636 0 0
0.163755 0 0
0.163755 0 0
0.165844 0 0
0.165844 0 0
0.167904 0 0
0.167904 0 0
0.169934 0 0
0.169934 0 0
0.171935 0 0
0.171935 0 0
0.173907 0 0
0.173907 0 0
0.17585 0 0
0.17585 0 0
0.177763 0 0
0.177763 0 0
0.179648 0 0
0.179648 0 0
0.181503 0 0
0.181503 0 0
0.183328 0 0
0.183328 0 0
0.185125 0 0
0.185125 0 0
0.186892 0 0
0.186892 0 0
0.18863 0 0
0.18863 0 0
0.190338 0 0
0.190338 0 0
0.192018 0 0
0.192018 0 0
0.193668 0 0
0.193668 0 0
0.195288 0 0
0.195288 0 0
0.19688 0 0
0.19688 0 0
0.198442 0 0
0.198442 0 0
0.199976 0 0
0.199976 0 0
0.201479 0 0
0.201479 0 0
0.202954 0 0
0.202954 0 0
0.204399 0 0
0.204399 0 0
0.205816 0 0
0.205816 0 0
0.207203 0 0
0.207203 0 0
0.20856 0 0
0.20856 0 0
0.209889 0 0
0.209889 0 0
0.211188 0 0
0.211188 0 0
0.212458 0 0
0.212458 0 0
0.213699 0 0
0.213699 0 0
0.21491 0 0
0.21491 0 0
0.216093 0 0
0.216093 0 0
0.217246 0 0
0.217246 0 0
0.21837 0 0
0.21837 0 0
0.219465 0 0
0.219465 0 0
0.22053 0 0
0.22053 0 0
0.221566 0 0
0.221566 0 0
0.222574 0 0
0.222574 0 0
0.223551 0 0
0.223551 0 0
0.2245 0 0
0.2245 0 0
0.22542 0 0
0.22542 0 0
0.22631 0 0
0.22631 0 0
0.227171 0 0
0.227171 0 0
0.228003 0 0
0.228003 0 0
0.228805 0 0
0.228805 0 0
0.229579 0 0
0.229579 0 0
0.230323 0 0
0.230323 0 0
0.231038 0 0
0.231038 0 0
0.231724 0 0
0.231724 0 0
0.232381 0 0
0.232381 0 0
0.233008 0 0
0.233008 0 0
0.233607 0 0
0.233607 0 0
0.234176 0 0
0.234176 0 0
0.234716 0 0
0.234716 0 0
0.235226 0 0
0.235226 0 0
0.235708 0 0
0.235708 0 0
0.23616 0 0
0.23616 0 0
0.236583 0 0
0.236583 0 0
0.236977 0 0
0.236977 0 0
0.237342 0 0
0.237342 0 0
0.237678 0 0
0.237678 0 0
0.237984 0 0
0.237984 0 0
0.238262 0 0
0.238262 0 0
0.23851 0 0
0.23851 0 0
0.238728 0 0
0.238728 0 0
0.238918 0 0
0.238918 0 0
0.239079 0 0
0.239079 0 0
0.23921 0 0
0.23921 0 0
0.239312 0 0
0.239312 0 0
0.239385 0 0
0.239385 0 0
0.239429 0 0
0.239429 0 0
0.239443 0 0
0.239443 0 0
0.239429 0 0
0.239429 0 0
0.239385 0 0
0.239385 0 0
0.239312 0 0
0.239312 0 0
0.23921 0 0
0.23921 0 0
0.239079 0 0
0.239079 0 0
0.238918 0 0
0.238918 0 0
0.238728 0 0
0.238728 0 0
0.23851 0 0
0.23851 0 0
0.238262 0 0
0.238262 0 0
0.237984 0 0
0.237984 0 0
0.237678 0 0
0.237678 0 0
0.237342 0 0
0.237342 0 0
0.236977 0 0
0.236977 0 0
0.236583 0 0
0.236583 0 0
0.23616 0 0
0.23616 0 0
0.235708 0 0
0.235708 0 0
0.235226 0 0
0.235226 0 0
0.234716 0 0
0.234716 0 0
0.234176 0 0
0.234176 0 0
0.233607 0 0
0.233607 0 0
0.233008 0 0
0.233008 0 0
0.232381 0 0
0.232381 0 0
0.231724 0 0
0.231724 0 0
0.231038 0 0
0.231038 0 0
0.230323 0 0
0.230323 0 0
0.229579 0 0
0.229579 0 0
0.228805 0 0
0.228805 0 0
0.228003 0 0
0.228003 0 0
0.227171 0 0
0.227171 0 0
0.22631 0 0
0.22631 0 0
0.22542 0 0
0.22542 0 0
0.2245 0 0
0.2245 0 0
0.223551 0 0
0.223551 0 0
0.222574 0 0
0.222574 0 0
0.221566 0 0
0.221566 0 0
0.22053 0 0
0.22053 0 0
0.219465 0 0
0.219465 0 0
0.21837 0 0
0.21837 0 0
0.217246 0 0
0.217246 0 0
0.216093 0 0
0.216093 0 0
0.21491 0 0
0.21491 0 0
0.213699 0 0
0.213699 0 0
0.212458 0 0
0.212458 0 0
0.211188 0 0
0.211188 0 0
0.209889 0 0
0.209889 0 0
0.20856 0 0
0.20856 0 0
0.207203 0 0
0.207203 0 0
0.205816 0 0
0.205816 0 0
0.204399 0 0
0.204399 0 0
0.202954 0 0
0.202954 0 0
0.201479 0 0
0.201479 0 0
0.199976 0 0
0.199976 0 0
0.198442 0 0
0.198442 0 0
0.19688 0 0
0.19688 0 0
0.195288 0 0
0.195288 0 0
0.193668 0 0
0.193668 0 0
0.192018 0 0
0.192018 0 0
0.190338 0 0
0.190338 0 0
0.18863 0 0
0.18863 0 0
0.186892 0 0
0.186892 0 0
0.185125 0 0
0.185125 0 0
0.183328 0 0
0.183328 0 0
0.181503 0 0
0.181503 0 0
0.179648 0 0
0.179648 0 0
0.177763 0 0
0.177763 0 0
0.17585 0 0
0.17585 0 0
0.173907 0 0
0.173907 0 0
0.171935 0 0
0.171935 0 0
0.169934 0 0
0.169934 0 0
0.167904 0 0
0.167904 0 0
0.165844 0 0
0.165844 0 0
0.163755 0 0
0.163755 0 0
0.161636 0 0
0.161636 0 0
0.159489 0 0
0.159489 0 0
0.157312 0 0
0.157312 0 0
0.155106 0 0
0.155106 0 0
0.15287 0 0
0.15287 0 0
0.150605 0 0
0.150605 0 0
0.148311 0 0
0.148311 0 0
0.145988 0 0
0.145988 0 0
0.143635 0 0
0.143635 0 0
0.141253 0 0
0.141253 0 0
0.138842 0 0
0.138842 0 0
0.136401 0 0
0.136401 0 0
0.133932 0 0
0.133932 0 0
0.131432 0 0
0.131432 0 0
0.128904 0 0
0.128904 0 0
0.126346 0 0
0.126346 0 0
0.123759 0 0
0.123759 0 0
0.121143 0 0
0.121143 0 0
0.118497 0 0
0.118497 0 0
0.115822 0 0
0.115822 0 0
0.113118 0 0
0.113118 0 0
0.110384 0 0
0.110384 0 0
0.107621 0 0
0.107621 0 0
0.104829 0 0
0.104829 0 0
0.102008 0 0
0.102008 0 0
0.0991569 0 0
0.0991569 0 0
0.0962768 0 0
0.0962768 0 0
0.0933674 0 0
0.0933674 0 0
0.0904286 0 0
0.0904286 0 0
0.0874605 0 0
0.0874605 0 0
0.0844632 0 0
0.0844632 0 0
0.0814365 0 0
0.0814365 0 0
0.0783805 0 0
0.0783805 0 0
0.0752951 0 0
0.0752951 0 0
0.0721805 0 0
0.0721805 0 0
0.0690365 0 0
0.0690365 0 0
0.0658632 0 0
0.0658632 0 0
0.0626606 0 0
0.0626606 0 0
0.0594287 0 0
0.0594287 0 0
0.0561675 0 0
0.0561675 0 0
0.0528769 0 0
0.0528769 0 0
0.0495571 0 0
0.0495571 0 0
0.0462079 0 0
0.0462079 0 0
0.0428294 0 0
0.0428294 0 0
0.0394215 0 0
0.0394215 0 0
0.0359844 0 0
0.0359844 0 0
0.0325179 0 0
0.0325179 0 0
0.0290221 0 0
0.0290221 0 0
0.025497 0 0
0.025497 0 0
0.0219425 0 0
0.0219425 0 0
0.0183587 0 0
0.0183587 0 0
0.0147456 0 0
0.0147456 0 0
0.0111032 0 0
0.0111032 0 0
0.00743147 0 0
0.00743147 0 0
0.0037304 0 0
0.0037304 0 0
0 0 0
VECTORS velocity double
0 0 0
0.00113088 0 0
0.00113088 0 0
0.00225321 0 0
0.00225321 0 0
0.00336697 0 0
0.00336697 0 0
0.00447216 0 0
0.00447216 0 0
0.00556878 0 0
0.00556878 0 0
0.00665684 0 0
0.00665684 0 0
0.00773632 0 0
0.00773632 0 0
0.00880722 0 0
0.00880722 0 0
0.00986954 0 0
0.00986954 0 0
0.0109233 0 0
0.0109233 0 0
0.0119684 0 0
0.0119684 0 0
0.013005 0 0
0.013005 0 0
0.014033 0 0
0.014033 0 0
0.0150523 0 0
0.0150523 0 0
0.0160631 0 0
0.0160631 0 0
0.0170653 0 0
0.0170653 0 0
0.0180588 0 0
0.0180588 0 0
0.0190438 0 0
0.0190438 0 0
0.0200201 0 0
0.0200201 0 0
0.0209878 0 0
0.0209878 0 0
0.0219468 0 0
0.0219468 0 0
0.0228973 0 0
0.0228973 0 0
0.0238391 0 0
0.0238391 0 0
0.0247722 0 0
0.0247722 0 0
0.0256967 0 0
0.0256967 0 0
0.0266125 0 0
0.0266125 0 0
0.0275197 0 0
0.0275197 0 0
0.0284182 0 0
0.0284182 0 0
0.029308 0 0
0.029308 0 0
0.0301891 0 0
0.0301891 0 0
0.0310615 0 0
0.0310615 0 0
0.0319252 0 0
0.0319252 0 0
0.0327802 0 0
0.0327802 0 0
0.0336265 0 0
0.0336265 0 0
0.034464 0 0
0.034464 0 0
0.0352928 0 0
0.0352928 0 0
0.0361128 0 0
0.0361128 0 0
0.036924 0 0
0.036924 0 0
0.0377265 0 0
0.0377265 0 0
0.0385201 0 0
0.0385201 0 0
0.039305 0 0
0.039305 0 0
0.040081 0 0
0.040081 0 0
0.0408482 0 0
0.0408482 0 0
0.0416066 0 0
0.0416066 0 0
0.0423561 0 0
0.0423561 0 0
0.0430968 0 0
0.0430968 0 0
0.0438285 0 0
0.0438285 0 0
0.0445514 0 0
0.0445514 0 0
0.0452654 0 0
0.0452654 0 0
0.0459704 0 0
0.0459704 0 0
0.0466665 0 0
0.0466665 0 0
0.0473537 0 0
0.0473537 0 0
0.0480319 0 0
0.0480319 0 0
0.0487011 0 0
0.0487011 0 0
0.0493614 0 0
0.0493614 0 0
0.0500126 0 0
0.0500126 0 0
0.0506549 0 0
0.0506549 0 0
0.0512881 0 0
0.0512881 0 0
0.0519123 0 0
0.0519123 0 0
0.0525275 0 0
0.0525275 0 0
0.0531336 0 0
0.0531336 0 0
0.0537307 0 0
0.0537307 0 0
0.0543186 0 0
0.0543186 0 0
0.0548976 0 0
0.0548976 0 0
0.0554674 0 0
0.0554674 0 0
0.0560281 0 0
0.0560281 0 0
0.0565798 0 0
0.0565798 0 0
0.0571223 0 0
0.0571223 0 0
0.0576557 0 0
0.0576557 0 0
0.05818 0 0
0.05818 0 0
0.0586952 0 0
0.0586952 0 0
0.0592013 0 0
0.0592013 0 0
0.0596983 0 0
0.0596983 0 0
0.0601861 0 0
0.0601861 0 0
0.0606648 0 0
0.0606648 0 0
0.0611344 0 0
0.0611344 0 0
0.0615949 0 0
0.0615949 0 0
0.0620462 0 0
0.0620462 0 0
0.0624885 0 0
0.0624885 0 0
0.0629216 0 0
0.0629216 0 0
0.0633456 0 0
0.0633456 0 0
0.0637605 0 0
0.0637605 0 0
0.0641662 0 0
0.0641662 0 0
0.0645629 0 0
0.0645629 0 0
0.0649505 0 0
0.0649505 0 0
0.065329 0 0
0.065329 0 0
0.0656985 0 0
0.0656985 0 0
0.0660588 0 0
0.0660588 0 0
0.0664101 0 0
0.0664101 0 0
0.0667523 0 0
0.0667523 0 0
0.0670855 0 0
0.0670855 0 0
0.0674097 0 0
0.0674097 0 0
0.0677248 0 0
0.0677248 0 0
0.0680309 0 0
0.0680309 0 0
0.068328 0 0
0.068328 0 0
0.068616 0 0
0.068616 0 0
0.0688951 0 0
0.0688951 0 0
0.0691653 0 0
0.0691653 0 0
0.0694264 0 0
0.0694264 0 0
0.0696786 0 0
0.0696786 0 0
0.0699218 0 0
0.0699218 0 0
0.0701561 0 0
0.0701561 0 0
0.0703814 0 0
0.0703814 0 0
0.0705978 0 0
0.0705978 0 0
0.0708054 0 0
0.0708054 0 0
0.071004 0 0
0.071004 0 0
0.0711937 0 0
0.0711937 0 0
0.0713745 0 0
0.0713745 0 0
0.0715465 0 0
0.0715465 0 0
0.0717095 0 0
0.0717095 0 0
0.0718637 0 0
0.0718637 0 0
0.0720091 0 0
0.0720091 0 0
0.0721456 0 0
0.0721456 0 0
0.0722733 0 0
0.0722733 0 0
0.0723921 0 0
0.0723921 0 0
0.0725021 0 0
0.0725021 0 0
0.0726033 0 0
0.0726033 0 0
0.0726957 0 0
0.0726957 0 0
0.0727792 0 0
0.0727792 0 0
0.072854 0 0
0.072854 0 0
0.0729199 0 0
0.0729199 0 0
0.0729771 0 0
0.0729771 0 0
0.0730254 0 0
0.0730254 0 0
0.073065 0 0
0.073065 0 0
0.0730958 0 0
0.0730958 0 0
0.0731177 0 0
0.0731177 0 0
0.0731309 0 0
0.0731309 0 0
0.0731353 0 0
0.0731353 0 0
0.0731309 0 0
0.0731309 0 0
0.0731177 0 0
0.0731177 0 0
0.0730958 0 0
0.0730958 0 0
0.073065 0 0
0.073065 0 0
0.0730254 0 0
0.0730254 0 0
0.0729771 0 0
0.0729771 0 0
0.0729199 0 0
0.0729199 0 0
0.072854 0 0
0.072854 0 0
0.0727792 0 0
0.0727792 0 0
0.0726957 0 0
0.0726957 0 0
0.0726033 0 0
0.0726033 0 0
0.0725021 0 0
0.0725021 0 0
0.0723921 0 0
0.0723921 0 0
0.0722733 0 0
0.0722733 0 0
0.0721456 0 0
0.0721456 0 0
0.0720091 0 0
0.0720091 0 0
0.0718637 0 0
0.0718637 0 0
0.0717095 0 0
0.0717095 0 0
0.0715465 0 0
0.0715465 0 0
0.0713745 0 0
0.0713745 0 0
0.0711937 0 0
0.0711937 0 0
0.071004 0 0
0.071004 0 0
0.0708054 0 0
0.0708054 0 0
0.0705978 0 0
0.0705978 0 0
0.0703814 0 0
0.0703814 0 0
0.0701561 0 0
0.0701561 0 0
0.0699218 0 0
0.0699218 0 0
0.0696786 0 0
0.0696786 0 0
0.0694264 0 0
0.0694264 0 0
0.0691653 0 0
0.0691653 0 0
0.0688951 0 0
0.0688951 0 0
0.068616 0 0
0.068616 0 0
0.068328 0 0
0.068328 0 0
0.0680309 0 0
0.0680309 0 0
0.0677248 0 0
0.0677248 0 0
0.0674097 0 0
0.0674097 0 0
0.0670855 0 0
0.0670855 0 0
0.0667523 0 0
0.0667523 0 0
0.0664101 0 0
0.0664101 0 0
0.0660588 0 0
0.0660588 0 0
0.0656985 0 0
0.0656985 0 0
0.065329 0 0
0.065329 0 0
0.0649505 0 0
0.0649505 0 0
0.0645629 0 0
0.0645629 0 0
0.0641662 0 0
0.0641662 0 0
0.0637605 0 0
0.0637605 0 0
0.0633456 0 0
0.0633456 0 0
0.0629216 0 0
0.0629216 0 0
0.0624885 0 0
0.0624885 0 0
0.0620462 0 0
0.0620462 0 0
0.0615949 0 0
0.0615949 0 0
0.0611344 0 0
0.0611344 0 0
0.0606648 0 0
0.0606648 0 0
0.0601861 0 0
0.0601861 0 0
0.0596983 0 0
0.0596983 0 0
0.0592013 0 0
0.0592013 0 0
0.0586952 0 0
0.0586952 0 0
0.05818 0 0
0.05818 0 0
0.0576557 0 0
0.0576557 0 0
0.0571223 0 0
0.0571223 0 0
0.0565798 0 0
0.0565798 0 0
0.0560281 0 0
0.0560281 0 0
0.0554674 0 0
0.0554674 0 0
0.0548976 0 0
0.0548976 0 0
0.0543186 0 0
0.0543186 0 0
0.0537307 0 0
0.0537307 0 0
0.0531336 0 0
0.0531336 0 0
0.0525275 0 0
0.0525275 0 0
0.0519123 0 0
0.0519123 0 0
0.0512881 0 0
0.0512881 0 0
0.0506549 0 0
0.0506549 0 0
0.0500126 0 0
0.0500126 0 0
0.0493614 0 0
0.0493614 0 0
0.0487011 0 0
0.0487011 0 0
0.0480319 0 0
0.0480319 0 0
0.0473537 0 0
0.0473537 0 0
0.0466665 0 0
0.0466665 0 0
0.0459704 0 0
0.0459704 0 0
0.0452654 0 0
0.0452654 0 0
0.0445514 0 0
0.0445514 0 0
0.0438285 0 0
0.0438285 0 0
0.0430968 0 0
0.0430968 0 0
0.0423561 0 0
0.0423561 0 0
0.0416066 0 0
0.0416066 0 0
0.0408482 0 0
0.0408482 0 0
0.040081 0 0
0.040081 0 0
0.039305 0 0
0.039305 0 0
0.0385201 0 0
0.0385201 0 0
0.0377265 0 0
0.0377265 0 0
0.036924 0 0
0.036924 0 0
0.0361128 0 0
0.0361128 0 0
0.0352928 0 0
0.0352928 0 0
0.034464 0 0
0.034464 0 0
0.0336265 0 0
0.0336265 0 0
0.0327802 0 0
0.0327802 0 0
0.0319252 0 0
0.0319252 0 0
0.0310615 0 0
0.0310615 0 0
0.0301891 0 0
0.0301891 0 0
0.029308 0 0
0.029308 0 0
0.0284182 0 0
0.0284182 0 0
0.0275197 0 0
0.0275197 0 0
0.0266125 0 0
0.0266125 0 0
0.0256967 0 0
0.0256967 0 0
0.0247722 0 0
0.0247722 0 0
0.0238391 0 0
0.0238391 0 0
0.0228973 0 0
0.0228973 0 0
0.0219468 0 0
0.0219468 0 0
0.0209878 0 0
0.0209878 0 0
0.0200201 0 0
0.0200201 0 0
0.0190438 0 0
0.0190438 0 0
0.0180588 0 0
0.0180588 0 0
0.0170653 0 0
0.0170653 0 0
0.0160631 0 0
0.0160631 0 0
0.0150523 0 0
0.0150523 0 0
0.014033 0 0
0.014033 0 0
0.013005 0 0
0.013005 0 0
0.0119684 0 0
0.0119684 0 0
0.0109233 0 0
0.0109233 0 0
0.00986954 0 0
0.00986954 0 0
0.00880722 0 0
0.00880722 0 0
0.00773632 0 0
0.00773632 0 0
0.00665684 0 0
0.00665684 0 0
0.00556878 0 0
0.00556878 0 0
0.00447216 0 0
0.00447216 0 0
0.00336697 0 0
0.00336697 0 0
0.00225321 0 0
0.00225321 0 0
0.00113088 0 0
0.00113088 0 0
0 0 0
