# vtk DataFile Version 3.0
#This file was generated by the deal.II library on 2025/4/1 at 13:03:51
ASCII
DATASET UNSTRUCTURED_GRID

FIELD FieldData 1
TIME 1 1 double
1.55556
POINTS 512 double
0 0 0
0.00390625 0 0
0.00390625 0 0
0.0078125 0 0
0.0078125 0 0
0.0117188 0 0
0.0117188 0 0
0.015625 0 0
0.015625 0 0
0.0195312 0 0
0.0195312 0 0
0.0234375 0 0
0.0234375 0 0
0.0273438 0 0
0.0273438 0 0
0.03125 0 0
0.03125 0 0
0.0351562 0 0
0.0351562 0 0
0.0390625 0 0
0.0390625 0 0
0.0429688 0 0
0.0429688 0 0
0.046875 0 0
0.046875 0 0
0.0507812 0 0
0.0507812 0 0
0.0546875 0 0
0.0546875 0 0
0.0585938 0 0
0.0585938 0 0
0.0625 0 0
0.0625 0 0
0.0664062 0 0
0.0664062 0 0
0.0703125 0 0
0.0703125 0 0
0.0742188 0 0
0.0742188 0 0
0.078125 0 0
0.078125 0 0
0.0820312 0 0
0.0820312 0 0
0.0859375 0 0
0.0859375 0 0
0.0898438 0 0
0.0898438 0 0
0.09375 0 0
0.09375 0 0
0.0976562 0 0
0.0976562 0 0
0.101562 0 0
0.101562 0 0
0.105469 0 0
0.105469 0 0
0.109375 0 0
0.109375 0 0
0.113281 0 0
0.113281 0 0
0.117188 0 0
0.117188 0 0
0.121094 0 0
0.121094 0 0
0.125 0 0
0.125 0 0
0.128906 0 0
0.128906 0 0
0.132812 0 0
0.132812 0 0
0.136719 0 0
0.136719 0 0
0.140625 0 0
0.140625 0 0
0.144531 0 0
0.144531 0 0
0.148438 0 0
0.148438 0 0
0.152344 0 0
0.152344 0 0
0.15625 0 0
0.15625 0 0
0.160156 0 0
0.160156 0 0
0.164062 0 0
0.164062 0 0
0.167969 0 0
0.167969 0 0
0.171875 0 0
0.171875 0 0
0.175781 0 0
0.175781 0 0
0.179688 0 0
0.179688 0 0
0.183594 0 0
0.183594 0 0
0.1875 0 0
0.1875 0 0
0.191406 0 0
0.191406 0 0
0.195312 0 0
0.195312 0 0
0.199219 0 0
0.199219 0 0
0.203125 0 0
0.203125 0 0
0.207031 0 0
0.207031 0 0
0.210938 0 0
0.210938 0 0
0.214844 0 0
0.214844 0 0
0.21875 0 0
0.21875 0 0
0.222656 0 0
0.222656 0 0
0.226562 0 0
0.226562 0 0
0.230469 0 0
0.230469 0 0
0.234375 0 0
0.234375 0 0
0.238281 0 0
0.238281 0 0
0.242188 0 0
0.242188 0 0
0.246094 0 0
0.246094 0 0
0.25 0 0
0.25 0 0
0.253906 0 0
0.253906 0 0
0.257812 0 0
0.257812 0 0
0.261719 0 0
0.261719 0 0
0.265625 0 0
0.265625 0 0
0.269531 0 0
0.269531 0 0
0.273438 0 0
0.273438 0 0
0.277344 0 0
0.277344 0 0
0.28125 0 0
0.28125 0 0
0.285156 0 0
0.285156 0 0
0.289062 0 0
0.289062 0 0
0.292969 0 0
0.292969 0 0
0.296875 0 0
0.296875 0 0
0.300781 0 0
0.300781 0 0
0.304688 0 0
0.304688 0 0
0.308594 0 0
0.308594 0 0
0.3125 0 0
0.3125 0 0
0.316406 0 0
0.316406 0 0
0.320312 0 0
0.320312 0 0
0.324219 0 0
0.324219 0 0
0.328125 0 0
0.328125 0 0
0.332031 0 0
0.332031 0 0
0.335938 0 0
0.335938 0 0
0.339844 0 0
0.339844 0 0
0.34375 0 0
0.34375 0 0
0.347656 0 0
0.347656 0 0
0.351562 0 0
0.351562 0 0
0.355469 0 0
0.355469 0 0
0.359375 0 0
0.359375 0 0
0.363281 0 0
0.363281 0 0
0.367188 0 0
0.367188 0 0
0.371094 0 0
0.371094 0 0
0.375 0 0
0.375 0 0
0.378906 0 0
0.378906 0 0
0.382812 0 0
0.382812 0 0
0.386719 0 0
0.386719 0 0
0.390625 0 0
0.390625 0 0
0.394531 0 0
0.394531 0 0
0.398438 0 0
0.398438 0 0
0.402344 0 0
0.402344 0 0
0.40625 0 0
0.40625 0 0
0.410156 0 0
0.410156 0 0
0.414062 0 0
0.414062 0 0
0.417969 0 0
0.417969 0 0
0.421875 0 0
0.421875 0 0
0.425781 0 0
0.425781 0 0
0.429688 0 0
0.429688 0 0
0.433594 0 0
0.433594 0 0
0.4375 0 0
0.4375 0 0
0.441406 0 0
0.441406 0 0
0.445312 0 0
0.445312 0 0
0.449219 0 0
0.449219 0 0
0.453125 0 0
0.453125 0 0
0.457031 0 0
0.457031 0 0
0.460938 0 0
0.460938 0 0
0.464844 0 0
0.464844 0 0
0.46875 0 0
0.46875 0 0
0.472656 0 0
0.472656 0 0
0.476562 0 0
0.476562 0 0
0.480469 0 0
0.480469 0 0
0.484375 0 0
0.484375 0 0
0.488281 0 0
0.488281 0 0
0.492188 0 0
0.492188 0 0
0.496094 0 0
0.496094 0 0
0.5 0 0
0.5 0 0
0.503906 0 0
0.503906 0 0
0.507812 0 0
0.507812 0 0
0.511719 0 0
0.511719 0 0
0.515625 0 0
0.515625 0 0
0.519531 0 0
0.519531 0 0
0.523438 0 0
0.523438 0 0
0.527344 0 0
0.527344 0 0
0.53125 0 0
0.53125 0 0
0.535156 0 0
0.535156 0 0
0.539062 0 0
0.539062 0 0
0.542969 0 0
0.542969 0 0
0.546875 0 0
0.546875 0 0
0.550781 0 0
0.550781 0 0
0.554688 0 0
0.554688 0 0
0.558594 0 0
0.558594 0 0
0.5625 0 0
0.5625 0 0
0.566406 0 0
0.566406 0 0
0.570312 0 0
0.570312 0 0
0.574219 0 0
0.574219 0 0
0.578125 0 0
0.578125 0 0
0.582031 0 0
0.582031 0 0
0.585938 0 0
0.585938 0 0
0.589844 0 0
0.589844 0 0
0.59375 0 0
0.59375 0 0
0.597656 0 0
0.597656 0 0
0.601562 0 0
0.601562 0 0
0.605469 0 0
0.605469 0 0
0.609375 0 0
0.609375 0 0
0.613281 0 0
0.613281 0 0
0.617188 0 0
0.617188 0 0
0.621094 0 0
0.621094 0 0
0.625 0 0
0.625 0 0
0.628906 0 0
0.628906 0 0
0.632812 0 0
0.632812 0 0
0.636719 0 0
0.636719 0 0
0.640625 0 0
0.640625 0 0
0.644531 0 0
0.644531 0 0
0.648438 0 0
0.648438 0 0
0.652344 0 0
0.652344 0 0
0.65625 0 0
0.65625 0 0
0.660156 0 0
0.660156 0 0
0.664062 0 0
0.664062 0 0
0.667969 0 0
0.667969 0 0
0.671875 0 0
0.671875 0 0
0.675781 0 0
0.675781 0 0
0.679688 0 0
0.679688 0 0
0.683594 0 0
0.683594 0 0
0.6875 0 0
0.6875 0 0
0.691406 0 0
0.691406 0 0
0.695312 0 0
0.695312 0 0
0.699219 0 0
0.699219 0 0
0.703125 0 0
0.703125 0 0
0.707031 0 0
0.707031 0 0
0.710938 0 0
0.710938 0 0
0.714844 0 0
0.714844 0 0
0.71875 0 0
0.71875 0 0
0.722656 0 0
0.722656 0 0
0.726562 0 0
0.726562 0 0
0.730469 0 0
0.730469 0 0
0.734375 0 0
0.734375 0 0
0.738281 0 0
0.738281 0 0
0.742188 0 0
0.742188 0 0
0.746094 0 0
0.746094 0 0
0.75 0 0
0.75 0 0
0.753906 0 0
0.753906 0 0
0.757812 0 0
0.757812 0 0
0.761719 0 0
0.761719 0 0
0.765625 0 0
0.765625 0 0
0.769531 0 0
0.769531 0 0
0.773438 0 0
0.773438 0 0
0.777344 0 0
0.777344 0 0
0.78125 0 0
0.78125 0 0
0.785156 0 0
0.785156 0 0
0.789062 0 0
0.789062 0 0
0.792969 0 0
0.792969 0 0
0.796875 0 0
0.796875 0 0
0.800781 0 0
0.800781 0 0
0.804688 0 0
0.804688 0 0
0.808594 0 0
0.808594 0 0
0.8125 0 0
0.8125 0 0
0.816406 0 0
0.816406 0 0
0.820312 0 0
0.820312 0 0
0.824219 0 0
0.824219 0 0
0.828125 0 0
0.828125 0 0
0.832031 0 0
0.832031 0 0
0.835938 0 0
0.835938 0 0
0.839844 0 0
0.839844 0 0
0.84375 0 0
0.84375 0 0
0.847656 0 0
0.847656 0 0
0.851562 0 0
0.851562 0 0
0.855469 0 0
0.855469 0 0
0.859375 0 0
0.859375 0 0
0.863281 0 0
0.863281 0 0
0.867188 0 0
0.867188 0 0
0.871094 0 0
0.871094 0 0
0.875 0 0
0.875 0 0
0.878906 0 0
0.878906 0 0
0.882812 0 0
0.882812 0 0
0.886719 0 0
0.886719 0 0
0.890625 0 0
0.890625 0 0
0.894531 0 0
0.894531 0 0
0.898438 0 0
0.898438 0 0
0.902344 0 0
0.902344 0 0
0.90625 0 0
0.90625 0 0
0.910156 0 0
0.910156 0 0
0.914062 0 0
0.914062 0 0
0.917969 0 0
0.917969 0 0
0.921875 0 0
0.921875 0 0
0.925781 0 0
0.925781 0 0
0.929688 0 0
0.929688 0 0
0.933594 0 0
0.933594 0 0
0.9375 0 0
0.9375 0 0
0.941406 0 0
0.941406 0 0
0.945312 0 0
0.945312 0 0
0.949219 0 0
0.949219 0 0
0.953125 0 0
0.953125 0 0
0.957031 0 0
0.957031 0 0
0.960938 0 0
0.960938 0 0
0.964844 0 0
0.964844 0 0
0.96875 0 0
0.96875 0 0
0.972656 0 0
0.972656 0 0
0.976562 0 0
0.976562 0 0
0.980469 0 0
0.980469 0 0
0.984375 0 0
0.984375 0 0
0.988281 0 0
0.988281 0 0
0.992188 0 0
0.992188 0 0
0.996094 0 0
0.996094 0 0
1 0 0

CELLS 256 768
2	0	1
2	2	3
2	4	5
2	6	7
2	8	9
2	10	11
2	12	13
2	14	15
2	16	17
2	18	19
2	20	21
2	22	23
2	24	25
2	26	27
2	28	29
2	30	31
2	32	33
2	34	35
2	36	37
2	38	39
2	40	41
2	42	43
2	44	45
2	46	47
2	48	49
2	50	51
2	52	53
2	54	55
2	56	57
2	58	59
2	60	61
2	62	63
2	64	65
2	66	67
2	68	69
2	70	71
2	72	73
2	74	75
2	76	77
2	78	79
2	80	81
2	82	83
2	84	85
2	86	87
2	88	89
2	90	91
2	92	93
2	94	95
2	96	97
2	98	99
2	100	101
2	102	103
2	104	105
2	106	107
2	108	109
2	110	111
2	112	113
2	114	115
2	116	117
2	118	119
2	120	121
2	122	123
2	124	125
2	126	127
2	128	129
2	130	131
2	132	133
2	134	135
2	136	137
2	138	139
2	140	141
2	142	143
2	144	145
2	146	147
2	148	149
2	150	151
2	152	153
2	154	155
2	156	157
2	158	159
2	160	161
2	162	163
2	164	165
2	166	167
2	168	169
2	170	171
2	172	173
2	174	175
2	176	177
2	178	179
2	180	181
2	182	183
2	184	185
2	186	187
2	188	189
2	190	191
2	192	193
2	194	195
2	196	197
2	198	199
2	200	201
2	202	203
2	204	205
2	206	207
2	208	209
2	210	211
2	212	213
2	214	215
2	216	217
2	218	219
2	220	221
2	222	223
2	224	225
2	226	227
2	228	229
2	230	231
2	232	233
2	234	235
2	236	237
2	238	239
2	240	241
2	242	243
2	244	245
2	246	247
2	248	249
2	250	251
2	252	253
2	254	255
2	256	257
2	258	259
2	260	261
2	262	263
2	264	265
2	266	267
2	268	269
2	270	271
2	272	273
2	274	275
2	276	277
2	278	279
2	280	281
2	282	283
2	284	285
2	286	287
2	288	289
2	290	291
2	292	293
2	294	295
2	296	297
2	298	299
2	300	301
2	302	303
2	304	305
2	306	307
2	308	309
2	310	311
2	312	313
2	314	315
2	316	317
2	318	319
2	320	321
2	322	323
2	324	325
2	326	327
2	328	329
2	330	331
2	332	333
2	334	335
2	336	337
2	338	339
2	340	341
2	342	343
2	344	345
2	346	347
2	348	349
2	350	351
2	352	353
2	354	355
2	356	357
2	358	359
2	360	361
2	362	363
2	364	365
2	366	367
2	368	369
2	370	371
2	372	373
2	374	375
2	376	377
2	378	379
2	380	381
2	382	383
2	384	385
2	386	387
2	388	389
2	390	391
2	392	393
2	394	395
2	396	397
2	398	399
2	400	401
2	402	403
2	404	405
2	406	407
2	408	409
2	410	411
2	412	413
2	414	415
2	416	417
2	418	419
2	420	421
2	422	423
2	424	425
2	426	427
2	428	429
2	430	431
2	432	433
2	434	435
2	436	437
2	438	439
2	440	441
2	442	443
2	444	445
2	446	447
2	448	449
2	450	451
2	452	453
2	454	455
2	456	457
2	458	459
2	460	461
2	462	463
2	464	465
2	466	467
2	468	469
2	470	471
2	472	473
2	474	475
2	476	477
2	478	479
2	480	481
2	482	483
2	484	485
2	486	487
2	488	489
2	490	491
2	492	493
2	494	495
2	496	497
2	498	499
2	500	501
2	502	503
2	504	505
2	506	507
2	508	509
2	510	511

CELL_TYPES 256
 3 3 3 3 3 3 3 3 3 3 3 3 3 3 3 3 3 3 3 3 3 3 3 3 3 3 3 3 3 3 3 3 3 3 3 3 3 3 3 3 3 3 3 3 3 3 3 3 3 3 3 3 3 3 3 3 3 3 3 3 3 3 3 3 3 3 3 3 3 3 3 3 3 3 3 3 3 3 3 3 3 3 3 3 3 3 3 3 3 3 3 3 3 3 3 3 3 3 3 3 3 3 3 3 3 3 3 3 3 3 3 3 3 3 3 3 3 3 3 3 3 3 3 3 3 3 3 3 3 3 3 3 3 3 3 3 3 3 3 3 3 3 3 3 3 3 3 3 3 3 3 3 3 3 3 3 3 3 3 3 3 3 3 3 3 3 3 3 3 3 3 3 3 3 3 3 3 3 3 3 3 3 3 3 3 3 3 3 3 3 3 3 3 3 3 3 3 3 3 3 3 3 3 3 3 3 3 3 3 3 3 3 3 3 3 3 3 3 3 3 3 3 3 3 3 3 3 3 3 3 3 3 3 3 3 3 3 3 3 3 3 3 3 3 3 3 3 3 3 3 3 3 3 3 3 3
POINT_DATA 512
VECTORS displacement double
0 0 0
0.00389271 0 0
0.00389271 0 0
0.0077549 0 0
0.0077549 0 0
0.0115866 0 0
0.0115866 0 0
0.0153877 0 0
0.0153877 0 0
0.0191584 0 0
0.0191584 0 0
0.0228985 0 0
0.0228985 0 0
0.0266082 0 0
0.0266082 0 0
0.0302873 0 0
0.0302873 0 0
0.0339359 0 0
0.0339359 0 0
0.0375539 0 0
0.0375539 0 0
0.0411415 0 0
0.0411415 0 0
0.0446986 0 0
0.0446986 0 0
0.0482251 0 0
0.0482251 0 0
0.0517211 0 0
0.0517211 0 0
0.0551866 0 0
0.0551866 0 0
0.0586216 0 0
0.0586216 0 0
0.0620261 0 0
0.0620261 0 0
0.0654001 0 0
0.0654001 0 0
0.0687435 0 0
0.0687435 0 0
0.0720564 0 0
0.0720564 0 0
0.0753389 0 0
0.0753389 0 0
0.0785908 0 0
0.0785908 0 0
0.0818122 0 0
0.0818122 0 0
0.085003 0 0
0.085003 0 0
0.0881634 0 0
0.0881634 0 0
0.0912932 0 0
0.0912932 0 0
0.0943926 0 0
0.0943926 0 0
0.0974614 0 0
0.0974614 0 0
0.1005 0 0
0.1005 0 0
0.103507 0 0
0.103507 0 0
0.106485 0 0
0.106485 0 0
0.109431 0 0
0.109431 0 0
0.112348 0 0
0.112348 0 0
0.115233 0 0
0.115233 0 0
0.118089 0 0
0.118089 0 0
0.120913 0 0
0.120913 0 0
0.123707 0 0
0.123707 0 0
0.126471 0 0
0.126471 0 0
0.129204 0 0
0.129204 0 0
0.131907 0 0
0.131907 0 0
0.134579 0 0
0.134579 0 0
0.137221 0 0
0.137221 0 0
0.139832 0 0
0.139832 0 0
0.142412 0 0
0.142412 0 0
0.144962 0 0
0.144962 0 0
0.147482 0 0
0.147482 0 0
0.149971 0 0
0.149971 0 0
0.152429 0 0
0.152429 0 0
0.154857 0 0
0.154857 0 0
0.157255 0 0
0.157255 0 0
0.159622 0 0
0.159622 0 0
0.161958 0 0
0.161958 0 0
0.164264 0 0
0.164264 0 0
0.166539 0 0
0.166539 0 0
0.168784 0 0
0.168784 0 0
0.170998 0 0
0.170998 0 0
0.173182 0 0
0.173182 0 0
0.175336 0 0
0.175336 0 0
0.177458 0 0
0.177458 0 0
0.179551 0 0
0.179551 0 0
0.181612 0 0
0.181612 0 0
0.183644 0 0
0.183644 0 0
0.185644 0 0
0.185644 0 0
0.187614 0 0
0.187614 0 0
0.189554 0 0
0.189554 0 0
0.191463 0 0
0.191463 0 0
0.193342 0 0
0.193342 0 0
0.19519 0 0
0.19519 0 0
0.197007 0 0
0.197007 0 0
0.198794 0 0
0.198794 0 0
0.200551 0 0
0.200551 0 0
0.202277 0 0
0.202277 0 0
0.203972 0 0
0.203972 0 0
0.205637 0 0
0.205637 0 0
0.207272 0 0
0.207272 0 0
0.208876 0 0
0.208876 0 0
0.210449 0 0
0.210449 0 0
0.211992 0 0
0.211992 0 0
0.213504 0 0
0.213504 0 0
0.214986 0 0
0.214986 0 0
0.216437 0 0
0.216437 0 0
0.217858 0 0
0.217858 0 0
0.219248 0 0
0.219248 0 0
0.220607 0 0
0.220607 0 0
0.221937 0 0
0.221937 0 0
0.223235 0 0
0.223235 0 0
0.224503 0 0
0.224503 0 0
0.225741 0 0
0.225741 0 0
0.226948 0 0
0.226948 0 0
0.228124 0 0
0.228124 0 0
0.22927 0 0
0.22927 0 0
0.230385 0 0
0.230385 0 0
0.23147 0 0
0.23147 0 0
0.232524 0 0
0.232524 0 0
0.233548 0 0
0.233548 0 0
0.234541 0 0
0.234541 0 0
0.235504 0 0
0.235504 0 0
0.236436 0 0
0.236436 0 0
0.237337 0 0
0.237337 0 0
0.238208 0 0
0.238208 0 0
0.239049 0 0
0.239049 0 0
0.239858 0 0
0.239858 0 0
0.240638 0 0
0.240638 0 0
0.241386 0 0
0.241386 0 0
0.242105 0 0
0.242105 0 0
0.242792 0 0
0.242792 0 0
0.243449 0 0
0.243449 0 0
0.244076 0 0
0.244076 0 0
0.244672 0 0
0.244672 0 0
0.245237 0 0
0.245237 0 0
0.245772 0 0
0.245772 0 0
0.246277 0 0
0.246277 0 0
0.24675 0 0
0.24675 0 0
0.247193 0 0
0.247193 0 0
0.247606 0 0
0.247606 0 0
0.247988 0 0
0.247988 0 0
0.24834 0 0
0.24834 0 0
0.248661 0 0
0.248661 0 0
0.248951 0 0
0.248951 0 0
0.249211 0 0
0.249211 0 0
0.24944 0 0
0.24944 0 0
0.249639 0 0
0.249639 0 0
0.249807 0 0
0.249807 0 0
0.249944 0 0
0.249944 0 0
0.250051 0 0
0.250051 0 0
0.250128 0 0
0.250128 0 0
0.250174 0 0
0.250174 0 0
0.250189 0 0
0.250189 0 0
0.250174 0 0
0.250174 0 0
0.250128 0 0
0.250128 0 0
0.250051 0 0
0.250051 0 0
0.249944 0 0
0.249944 0 0
0.249807 0 0
0.249807 0 0
0.249639 0 0
0.249639 0 0
0.24944 0 0
0.24944 0 0
0.249211 0 0
0.249211 0 0
0.248951 0 0
0.248951 0 0
0.248661 0 0
0.248661 0 0
0.24834 0 0
0.24834 0 0
0.247988 0 0
0.247988 0 0
0.247606 0 0
0.247606 0 0
0.247193 0 0
0.247193 0 0
0.24675 0 0
0.24675 0 0
0.246277 0 0
0.246277 0 0
0.245772 0 0
0.245772 0 0
0.245237 0 0
0.245237 0 0
0.244672 0 0
0.244672 0 0
0.244076 0 0
0.244076 0 0
0.243449 0 0
0.243449 0 0
0.242792 0 0
0.242792 0 0
0.242105 0 0
0.242105 0 0
0.241386 0 0
0.241386 0 0
0.240638 0 0
0.240638 0 0
0.239858 0 0
0.239858 0 0
0.239049 0 0
0.239049 0 0
0.238208 0 0
0.238208 0 0
0.237337 0 0
0.237337 0 0
0.236436 0 0
0.236436 0 0
0.235504 0 0
0.235504 0 0
0.234541 0 0
0.234541 0 0
0.233548 0 0
0.233548 0 0
0.232524 0 0
0.232524 0 0
0.23147 0 0
0.23147 0 0
0.230385 0 0
0.230385 0 0
0.22927 0 0
0.22927 0 0
0.228124 0 0
0.228124 0 0
0.226948 0 0
0.226948 0 0
0.225741 0 0
0.225741 0 0
0.224503 0 0
0.224503 0 0
0.223235 0 0
0.223235 0 0
0.221937 0 0
0.221937 0 0
0.220607 0 0
0.220607 0 0
0.219248 0 0
0.219248 0 0
0.217858 0 0
0.217858 0 0
0.216437 0 0
0.216437 0 0
0.214986 0 0
0.214986 0 0
0.213504 0 0
0.213504 0 0
0.211992 0 0
0.211992 0 0
0.210449 0 0
0.210449 0 0
0.208876 0 0
0.208876 0 0
0.207272 0 0
0.207272 0 0
0.205637 0 0
0.205637 0 0
0.203972 0 0
0.203972 0 0
0.202277 0 0
0.202277 0 0
0.200551 0 0
0.200551 0 0
0.198794 0 0
0.198794 0 0
0.197007 0 0
0.197007 0 0
0.19519 0 0
0.19519 0 0
0.193342 0 0
0.193342 0 0
0.191463 0 0
0.191463 0 0
0.189554 0 0
0.189554 0 0
0.187614 0 0
0.187614 0 0
0.185644 0 0
0.185644 0 0
0.183644 0 0
0.183644 0 0
0.181612 0 0
0.181612 0 0
0.179551 0 0
0.179551 0 0
0.177458 0 0
0.177458 0 0
0.175336 0 0
0.175336 0 0
0.173182 0 0
0.173182 0 0
0.170998 0 0
0.170998 0 0
0.168784 0 0
0.168784 0 0
0.166539 0 0
0.166539 0 0
0.164264 0 0
0.164264 0 0
0.161958 0 0
0.161958 0 0
0.159622 0 0
0.159622 0 0
0.157255 0 0
0.157255 0 0
0.154857 0 0
0.154857 0 0
0.152429 0 0
0.152429 0 0
0.149971 0 0
0.149971 0 0
0.147482 0 0
0.147482 0 0
0.144962 0 0
0.144962 0 0
0.142412 0 0
0.142412 0 0
0.139832 0 0
0.139832 0 0
0.137221 0 0
0.137221 0 0
0.134579 0 0
0.134579 0 0
0.131907 0 0
0.131907 0 0
0.129204 0 0
0.129204 0 0
0.126471 0 0
0.126471 0 0
0.123707 0 0
0.123707 0 0
0.120913 0 0
0.120913 0 0
0.118089 0 0
0.118089 0 0
0.115233 0 0
0.115233 0 0
0.112348 0 0
0.112348 0 0
0.109431 0 0
0.109431 0 0
0.106485 0 0
0.106485 0 0
0.103507 0 0
0.103507 0 0
0.1005 0 0
0.1005 0 0
0.0974614 0 0
0.0974614 0 0
0.0943926 0 0
0.0943926 0 0
0.0912932 0 0
0.0912932 0 0
0.0881634 0 0
0.0881634 0 0
0.085003 0 0
0.085003 0 0
0.0818122 0 0
0.0818122 0 0
0.0785908 0 0
0.0785908 0 0
0.0753389 0 0
0.0753389 0 0
0.0720564 0 0
0.0720564 0 0
0.0687435 0 0
0.0687435 0 0
0.0654001 0 0
0.0654001 0 0
0.0620261 0 0
0.0620261 0 0
0.0586216 0 0
0.0586216 0 0
0.0551866 0 0
0.0551866 0 0
0.0517211 0 0
0.0517211 0 0
0.0482251 0 0
0.0482251 0 0
0.0446986 0 0
0.0446986 0 0
0.0411415 0 0
0.0411415 0 0
0.0375539 0 0
0.0375539 0 0
0.0339359 0 0
0.0339359 0 0
0.0302873 0 0
0.0302873 0 0
0.0266082 0 0
0.0266082 0 0
0.0228985 0 0
0.0228985 0 0
0.0191584 0 0
0.0191584 0 0
0.0153877 0 0
0.0153877 0 0
0.0115866 0 0
0.0115866 0 0
0.0077549 0 0
0.0077549 0 0
0.00389271 0 0
0.00389271 0 0
0 0 0
VECTORS velocity double
0 0 0
0.000115715 0 0
0.000115715 0 0
0.000230844 0 0
0.000230844 0 0
0.000345386 0 0
0.000345386 0 0
0.000459339 0 0
0.000459339 0 0
0.000572701 0 0
0.000572701 0 0
0.000685471 0 0
0.000685471 0 0
0.000797647 0 0
0.000797647 0 0
0.000909227 0 0
0.000909227 0 0
0.00102021 0 0
0.00102021 0 0
0.0011306 0 0
0.0011306 0 0
0.00124038 0 0
0.00124038 0 0
0.00134956 0 0
0.00134956 0 0
0.00145814 0 0
0.00145814 0 0
0.00156611 0 0
0.00156611 0 0
0.00167348 0 0
0.00167348 0 0
0.00178023 0 0
0.00178023 0 0
0.00188638 0 0
0.00188638 0 0
0.00199191 0 0
0.00199191 0 0
0.00209683 0 0
0.00209683 0 0
0.00220114 0 0
0.00220114 0 0
0.00230482 0 0
0.00230482 0 0
0.00240789 0 0
0.00240789 0 0
0.00251033 0 0
0.00251033 0 0
0.00261216 0 0
0.00261216 0 0
0.00271335 0 0
0.00271335 0 0
0.00281392 0 0
0.00281392 0 0
0.00291387 0 0
0.00291387 0 0
0.00301318 0 0
0.00301318 0 0
0.00311185 0 0
0.00311185 0 0
0.0032099 0 0
0.0032099 0 0
0.0033073 0 0
0.0033073 0 0
0.00340407 0 0
0.00340407 0 0
0.00350019 0 0
0.00350019 0 0
0.00359567 0 0
0.00359567 0 0
0.00369051 0 0
0.00369051 0 0
0.00378469 0 0
0.00378469 0 0
0.00387823 0 0
0.00387823 0 0
0.00397111 0 0
0.00397111 0 0
0.00406334 0 0
0.00406334 0 0
0.0041549 0 0
0.0041549 0 0
0.0042458 0 0
0.0042458 0 0
0.00433604 0 0
0.00433604 0 0
0.00442561 0 0
0.00442561 0 0
0.00451451 0 0
0.00451451 0 0
0.00460274 0 0
0.00460274 0 0
0.00469028 0 0
0.00469028 0 0
0.00477715 0 0
0.00477715 0 0
0.00486333 0 0
0.00486333 0 0
0.00494882 0 0
0.00494882 0 0
0.00503362 0 0
0.00503362 0 0
0.00511772 0 0
0.00511772 0 0
0.00520112 0 0
0.00520112 0 0
0.00528381 0 0
0.00528381 0 0
0.0053658 0 0
0.0053658 0 0
0.00544706 0 0
0.00544706 0 0
0.00552761 0 0
0.00552761 0 0
0.00560743 0 0
0.00560743 0 0
0.00568652 0 0
0.00568652 0 0
0.00576487 0 0
0.00576487 0 0
0.00584248 0 0
0.00584248 0 0
0.00591934 0 0
0.00591934 0 0
0.00599544 0 0
0.00599544 0 0
0.00607078 0 0
0.00607078 0 0
0.00614535 0 0
0.00614535 0 0
0.00621914 0 0
0.00621914 0 0
0.00629215 0 0
0.00629215 0 0
0.00636437 0 0
0.00636437 0 0
0.00643578 0 0
0.00643578 0 0
0.00650639 0 0
0.00650639 0 0
0.00657618 0 0
0.00657618 0 0
0.00664514 0 0
0.00664514 0 0
0.00671327 0 0
0.00671327 0 0
0.00678055 0 0
0.00678055 0 0
0.00684698 0 0
0.00684698 0 0
0.00691253 0 0
0.00691253 0 0
0.00697722 0 0
0.00697722 0 0
0.00704101 0 0
0.00704101 0 0
0.00710391 0 0
0.00710391 0 0
0.00716589 0 0
0.00716589 0 0
0.00722695 0 0
0.00722695 0 0
0.00728708 0 0
0.00728708 0 0
0.00734626 0 0
0.00734626 0 0
0.00740448 0 0
0.00740448 0 0
0.00746173 0 0
0.00746173 0 0
0.00751799 0 0
0.00751799 0 0
0.00757325 0 0
0.00757325 0 0
0.0076275 0 0
0.0076275 0 0
0.00768072 0 0
0.00768072 0 0
0.0077329 0 0
0.0077329 0 0
0.00778402 0 0
0.00778402 0 0
0.00783406 0 0
0.00783406 0 0
0.00788302 0 0
0.00788302 0 0
0.00793088 0 0
0.00793088 0 0
0.00797762 0 0
0.00797762 0 0
0.00802323 0 0
0.00802323 0 0
0.00806769 0 0
0.00806769 0 0
0.00811099 0 0
0.00811099 0 0
0.0081531 0 0
0.0081531 0 0
0.00819402 0 0
0.00819402 0 0
0.00823373 0 0
0.00823373 0 0
0.00827222 0 0
0.00827222 0 0
0.00830946 0 0
0.00830946 0 0
0.00834545 0 0
0.00834545 0 0
0.00838017 0 0
0.00838017 0 0
0.0084136 0 0
0.0084136 0 0
0.00844573 0 0
0.00844573 0 0
0.00847654 0 0
0.00847654 0 0
0.00850603 0 0
0.00850603 0 0
0.00853417 0 0
0.00853417 0 0
0.00856095 0 0
0.00856095 0 0
0.00858637 0 0
0.00858637 0 0
0.00861041 0 0
0.00861041 0 0
0.00863305 0 0
0.00863305 0 0
0.00865429 0 0
0.00865429 0 0
0.00867411 0 0
0.00867411 0 0
0.00869251 0 0
0.00869251 0 0
0.00870947 0 0
0.00870947 0 0
0.00872499 0 0
0.00872499 0 0
0.00873906 0 0
0.00873906 0 0
0.00875166 0 0
0.00875166 0 0
0.0087628 0 0
0.0087628 0 0
0.00877247 0 0
0.00877247 0 0
0.00878066 0 0
0.00878066 0 0
0.00878736 0 0
0.00878736 0 0
0.00879258 0 0
0.00879258 0 0
0.00879631 0 0
0.00879631 0 0
0.00879855 0 0
0.00879855 0 0
0.0087993 0 0
0.0087993 0 0
0.00879855 0 0
0.00879855 0 0
0.00879631 0 0
0.00879631 0 0
0.00879258 0 0
0.00879258 0 0
0.00878736 0 0
0.00878736 0 0
0.00878066 0 0
0.00878066 0 0
0.00877247 0 0
0.00877247 0 0
0.0087628 0 0
0.0087628 0 0
0.00875166 0 0
0.00875166 0 0
0.00873906 0 0
0.00873906 0 0
0.00872499 0 0
0.00872499 0 0
0.00870947 0 0
0.00870947 0 0
0.00869251 0 0
0.00869251 0 0
0.00867411 0 0
0.00867411 0 0
0.00865429 0 0
0.00865429 0 0
0.00863305 0 0
0.00863305 0 0
0.00861041 0 0
0.00861041 0 0
0.00858637 0 0
0.00858637 0 0
0.00856095 0 0
0.00856095 0 0
0.00853417 0 0
0.00853417 0 0
0.00850603 0 0
0.00850603 0 0
0.00847654 0 0
0.00847654 0 0
0.00844573 0 0
0.00844573 0 0
0.0084136 0 0
0.0084136 0 0
0.00838017 0 0
0.00838017 0 0
0.00834545 0 0
0.00834545 0 0
0.00830946 0 0
0.00830946 0 0
0.00827222 0 0
0.00827222 0 0
0.00823373 0 0
0.00823373 0 0
0.00819402 0 0
0.00819402 0 0
0.0081531 0 0
0.0081531 0 0
0.00811099 0 0
0.00811099 0 0
0.00806769 0 0
0.00806769 0 0
0.00802323 0 0
0.00802323 0 0
0.00797762 0 0
0.00797762 0 0
0.00793088 0 0
0.00793088 0 0
0.00788302 0 0
0.00788302 0 0
0.00783406 0 0
0.00783406 0 0
0.00778402 0 0
0.00778402 0 0
0.0077329 0 0
0.0077329 0 0
0.00768072 0 0
0.00768072 0 0
0.0076275 0 0
0.0076275 0 0
0.00757325 0 0
0.00757325 0 0
0.00751799 0 0
0.00751799 0 0
0.00746173 0 0
0.00746173 0 0
0.00740448 0 0
0.00740448 0 0
0.00734626 0 0
0.00734626 0 0
0.00728708 0 0
0.00728708 0 0
0.00722695 0 0
0.00722695 0 0
0.00716589 0 0
0.00716589 0 0
0.00710391 0 0
0.00710391 0 0
0.00704101 0 0
0.00704101 0 0
0.00697722 0 0
0.00697722 0 0
0.00691253 0 0
0.00691253 0 0
0.00684698 0 0
0.00684698 0 0
0.00678055 0 0
0.00678055 0 0
0.00671327 0 0
0.00671327 0 0
0.00664514 0 0
0.00664514 0 0
0.00657618 0 0
0.00657618 0 0
0.00650639 0 0
0.00650639 0 0
0.00643578 0 0
0.00643578 0 0
0.00636437 0 0
0.00636437 0 0
0.00629215 0 0
0.00629215 0 0
0.00621914 0 0
0.00621914 0 0
0.00614535 0 0
0.00614535 0 0
0.00607078 0 0
0.00607078 0 0
0.00599544 0 0
0.00599544 0 0
0.00591934 0 0
0.00591934 0 0
0.00584248 0 0
0.00584248 0 0
0.00576487 0 0
0.00576487 0 0
0.00568652 0 0
0.00568652 0 0
0.00560743 0 0
0.00560743 0 0
0.00552761 0 0
0.00552761 0 0
0.00544706 0 0
0.00544706 0 0
0.0053658 0 0
0.0053658 0 0
0.00528381 0 0
0.00528381 0 0
0.00520112 0 0
0.00520112 0 0
0.00511772 0 0
0.00511772 0 0
0.00503362 0 0
0.00503362 0 0
0.00494882 0 0
0.00494882 0 0
0.00486333 0 0
0.00486333 0 0
0.00477715 0 0
0.00477715 0 0
0.00469028 0 0
0.00469028 0 0
0.00460274 0 0
0.00460274 0 0
0.00451451 0 0
0.00451451 0 0
0.00442561 0 0
0.00442561 0 0
0.00433604 0 0
0.00433604 0 0
0.0042458 0 0
0.0042458 0 0
0.0041549 0 0
0.0041549 0 0
0.00406334 0 0
0.00406334 0 0
0.00397111 0 0
0.00397111 0 0
0.00387823 0 0
0.00387823 0 0
0.00378469 0 0
0.00378469 0 0
0.00369051 0 0
0.00369051 0 0
0.00359567 0 0
0.00359567 0 0
0.00350019 0 0
0.00350019 0 0
0.00340407 0 0
0.00340407 0 0
0.0033073 0 0
0.0033073 0 0
0.0032099 0 0
0.0032099 0 0
0.00311185 0 0
0.00311185 0 0
0.00301318 0 0
0.00301318 0 0
0.00291387 0 0
0.00291387 0 0
0.00281392 0 0
0.00281392 0 0
0.00271335 0 0
0.00271335 0 0
0.00261216 0 0
0.00261216 0 0
0.00251033 0 0
0.00251033 0 0
0.00240789 0 0
0.00240789 0 0
0.00230482 0 0
0.00230482 0 0
0.00220114 0 0
0.00220114 0 0
0.00209683 0 0
0.00209683 0 0
0.00199191 0 0
0.00199191 0 0
0.00188638 0 0
0.00188638 0 0
0.00178023 0 0
0.00178023 0 0
0.00167348 0 0
0.00167348 0 0
0.00156611 0 0
0.00156611 0 0
0.00145814 0 0
0.00145814 0 0
0.00134956 0 0
0.00134956 0 0
0.00124038 0 0
0.00124038 0 0
0.0011306 0 0
0.0011306 0 0
0.00102021 0 0
0.00102021 0 0
0.000909227 0 0
0.000909227 0 0
0.000797647 0 0
0.000797647 0 0
0.000685471 0 0
0.000685471 0 0
0.000572701 0 0
0.000572701 0 0
0.000459339 0 0
0.000459339 0 0
0.000345386 0 0
0.000345386 0 0
0.000230844 0 0
0.000230844 0 0
0.000115715 0 0
0.000115715 0 0
0 0 0
