# vtk DataFile Version 3.0
#This file was generated by the deal.II library on 2025/3/31 at 13:54:37
ASCII
DATASET UNSTRUCTURED_GRID

FIELD FieldData 1
TIME 1 1 double
0.515625
POINTS 512 double
0 0 0
0.00390625 0 0
0.00390625 0 0
0.0078125 0 0
0.0078125 0 0
0.0117188 0 0
0.0117188 0 0
0.015625 0 0
0.015625 0 0
0.0195312 0 0
0.0195312 0 0
0.0234375 0 0
0.0234375 0 0
0.0273438 0 0
0.0273438 0 0
0.03125 0 0
0.03125 0 0
0.0351562 0 0
0.0351562 0 0
0.0390625 0 0
0.0390625 0 0
0.0429688 0 0
0.0429688 0 0
0.046875 0 0
0.046875 0 0
0.0507812 0 0
0.0507812 0 0
0.0546875 0 0
0.0546875 0 0
0.0585938 0 0
0.0585938 0 0
0.0625 0 0
0.0625 0 0
0.0664062 0 0
0.0664062 0 0
0.0703125 0 0
0.0703125 0 0
0.0742188 0 0
0.0742188 0 0
0.078125 0 0
0.078125 0 0
0.0820312 0 0
0.0820312 0 0
0.0859375 0 0
0.0859375 0 0
0.0898438 0 0
0.0898438 0 0
0.09375 0 0
0.09375 0 0
0.0976562 0 0
0.0976562 0 0
0.101562 0 0
0.101562 0 0
0.105469 0 0
0.105469 0 0
0.109375 0 0
0.109375 0 0
0.113281 0 0
0.113281 0 0
0.117188 0 0
0.117188 0 0
0.121094 0 0
0.121094 0 0
0.125 0 0
0.125 0 0
0.128906 0 0
0.128906 0 0
0.132812 0 0
0.132812 0 0
0.136719 0 0
0.136719 0 0
0.140625 0 0
0.140625 0 0
0.144531 0 0
0.144531 0 0
0.148438 0 0
0.148438 0 0
0.152344 0 0
0.152344 0 0
0.15625 0 0
0.15625 0 0
0.160156 0 0
0.160156 0 0
0.164062 0 0
0.164062 0 0
0.167969 0 0
0.167969 0 0
0.171875 0 0
0.171875 0 0
0.175781 0 0
0.175781 0 0
0.179688 0 0
0.179688 0 0
0.183594 0 0
0.183594 0 0
0.1875 0 0
0.1875 0 0
0.191406 0 0
0.191406 0 0
0.195312 0 0
0.195312 0 0
0.199219 0 0
0.199219 0 0
0.203125 0 0
0.203125 0 0
0.207031 0 0
0.207031 0 0
0.210938 0 0
0.210938 0 0
0.214844 0 0
0.214844 0 0
0.21875 0 0
0.21875 0 0
0.222656 0 0
0.222656 0 0
0.226562 0 0
0.226562 0 0
0.230469 0 0
0.230469 0 0
0.234375 0 0
0.234375 0 0
0.238281 0 0
0.238281 0 0
0.242188 0 0
0.242188 0 0
0.246094 0 0
0.246094 0 0
0.25 0 0
0.25 0 0
0.253906 0 0
0.253906 0 0
0.257812 0 0
0.257812 0 0
0.261719 0 0
0.261719 0 0
0.265625 0 0
0.265625 0 0
0.269531 0 0
0.269531 0 0
0.273438 0 0
0.273438 0 0
0.277344 0 0
0.277344 0 0
0.28125 0 0
0.28125 0 0
0.285156 0 0
0.285156 0 0
0.289062 0 0
0.289062 0 0
0.292969 0 0
0.292969 0 0
0.296875 0 0
0.296875 0 0
0.300781 0 0
0.300781 0 0
0.304688 0 0
0.304688 0 0
0.308594 0 0
0.308594 0 0
0.3125 0 0
0.3125 0 0
0.316406 0 0
0.316406 0 0
0.320312 0 0
0.320312 0 0
0.324219 0 0
0.324219 0 0
0.328125 0 0
0.328125 0 0
0.332031 0 0
0.332031 0 0
0.335938 0 0
0.335938 0 0
0.339844 0 0
0.339844 0 0
0.34375 0 0
0.34375 0 0
0.347656 0 0
0.347656 0 0
0.351562 0 0
0.351562 0 0
0.355469 0 0
0.355469 0 0
0.359375 0 0
0.359375 0 0
0.363281 0 0
0.363281 0 0
0.367188 0 0
0.367188 0 0
0.371094 0 0
0.371094 0 0
0.375 0 0
0.375 0 0
0.378906 0 0
0.378906 0 0
0.382812 0 0
0.382812 0 0
0.386719 0 0
0.386719 0 0
0.390625 0 0
0.390625 0 0
0.394531 0 0
0.394531 0 0
0.398438 0 0
0.398438 0 0
0.402344 0 0
0.402344 0 0
0.40625 0 0
0.40625 0 0
0.410156 0 0
0.410156 0 0
0.414062 0 0
0.414062 0 0
0.417969 0 0
0.417969 0 0
0.421875 0 0
0.421875 0 0
0.425781 0 0
0.425781 0 0
0.429688 0 0
0.429688 0 0
0.433594 0 0
0.433594 0 0
0.4375 0 0
0.4375 0 0
0.441406 0 0
0.441406 0 0
0.445312 0 0
0.445312 0 0
0.449219 0 0
0.449219 0 0
0.453125 0 0
0.453125 0 0
0.457031 0 0
0.457031 0 0
0.460938 0 0
0.460938 0 0
0.464844 0 0
0.464844 0 0
0.46875 0 0
0.46875 0 0
0.472656 0 0
0.472656 0 0
0.476562 0 0
0.476562 0 0
0.480469 0 0
0.480469 0 0
0.484375 0 0
0.484375 0 0
0.488281 0 0
0.488281 0 0
0.492188 0 0
0.492188 0 0
0.496094 0 0
0.496094 0 0
0.5 0 0
0.5 0 0
0.503906 0 0
0.503906 0 0
0.507812 0 0
0.507812 0 0
0.511719 0 0
0.511719 0 0
0.515625 0 0
0.515625 0 0
0.519531 0 0
0.519531 0 0
0.523438 0 0
0.523438 0 0
0.527344 0 0
0.527344 0 0
0.53125 0 0
0.53125 0 0
0.535156 0 0
0.535156 0 0
0.539062 0 0
0.539062 0 0
0.542969 0 0
0.542969 0 0
0.546875 0 0
0.546875 0 0
0.550781 0 0
0.550781 0 0
0.554688 0 0
0.554688 0 0
0.558594 0 0
0.558594 0 0
0.5625 0 0
0.5625 0 0
0.566406 0 0
0.566406 0 0
0.570312 0 0
0.570312 0 0
0.574219 0 0
0.574219 0 0
0.578125 0 0
0.578125 0 0
0.582031 0 0
0.582031 0 0
0.585938 0 0
0.585938 0 0
0.589844 0 0
0.589844 0 0
0.59375 0 0
0.59375 0 0
0.597656 0 0
0.597656 0 0
0.601562 0 0
0.601562 0 0
0.605469 0 0
0.605469 0 0
0.609375 0 0
0.609375 0 0
0.613281 0 0
0.613281 0 0
0.617188 0 0
0.617188 0 0
0.621094 0 0
0.621094 0 0
0.625 0 0
0.625 0 0
0.628906 0 0
0.628906 0 0
0.632812 0 0
0.632812 0 0
0.636719 0 0
0.636719 0 0
0.640625 0 0
0.640625 0 0
0.644531 0 0
0.644531 0 0
0.648438 0 0
0.648438 0 0
0.652344 0 0
0.652344 0 0
0.65625 0 0
0.65625 0 0
0.660156 0 0
0.660156 0 0
0.664062 0 0
0.664062 0 0
0.667969 0 0
0.667969 0 0
0.671875 0 0
0.671875 0 0
0.675781 0 0
0.675781 0 0
0.679688 0 0
0.679688 0 0
0.683594 0 0
0.683594 0 0
0.6875 0 0
0.6875 0 0
0.691406 0 0
0.691406 0 0
0.695312 0 0
0.695312 0 0
0.699219 0 0
0.699219 0 0
0.703125 0 0
0.703125 0 0
0.707031 0 0
0.707031 0 0
0.710938 0 0
0.710938 0 0
0.714844 0 0
0.714844 0 0
0.71875 0 0
0.71875 0 0
0.722656 0 0
0.722656 0 0
0.726562 0 0
0.726562 0 0
0.730469 0 0
0.730469 0 0
0.734375 0 0
0.734375 0 0
0.738281 0 0
0.738281 0 0
0.742188 0 0
0.742188 0 0
0.746094 0 0
0.746094 0 0
0.75 0 0
0.75 0 0
0.753906 0 0
0.753906 0 0
0.757812 0 0
0.757812 0 0
0.761719 0 0
0.761719 0 0
0.765625 0 0
0.765625 0 0
0.769531 0 0
0.769531 0 0
0.773438 0 0
0.773438 0 0
0.777344 0 0
0.777344 0 0
0.78125 0 0
0.78125 0 0
0.785156 0 0
0.785156 0 0
0.789062 0 0
0.789062 0 0
0.792969 0 0
0.792969 0 0
0.796875 0 0
0.796875 0 0
0.800781 0 0
0.800781 0 0
0.804688 0 0
0.804688 0 0
0.808594 0 0
0.808594 0 0
0.8125 0 0
0.8125 0 0
0.816406 0 0
0.816406 0 0
0.820312 0 0
0.820312 0 0
0.824219 0 0
0.824219 0 0
0.828125 0 0
0.828125 0 0
0.832031 0 0
0.832031 0 0
0.835938 0 0
0.835938 0 0
0.839844 0 0
0.839844 0 0
0.84375 0 0
0.84375 0 0
0.847656 0 0
0.847656 0 0
0.851562 0 0
0.851562 0 0
0.855469 0 0
0.855469 0 0
0.859375 0 0
0.859375 0 0
0.863281 0 0
0.863281 0 0
0.867188 0 0
0.867188 0 0
0.871094 0 0
0.871094 0 0
0.875 0 0
0.875 0 0
0.878906 0 0
0.878906 0 0
0.882812 0 0
0.882812 0 0
0.886719 0 0
0.886719 0 0
0.890625 0 0
0.890625 0 0
0.894531 0 0
0.894531 0 0
0.898438 0 0
0.898438 0 0
0.902344 0 0
0.902344 0 0
0.90625 0 0
0.90625 0 0
0.910156 0 0
0.910156 0 0
0.914062 0 0
0.914062 0 0
0.917969 0 0
0.917969 0 0
0.921875 0 0
0.921875 0 0
0.925781 0 0
0.925781 0 0
0.929688 0 0
0.929688 0 0
0.933594 0 0
0.933594 0 0
0.9375 0 0
0.9375 0 0
0.941406 0 0
0.941406 0 0
0.945312 0 0
0.945312 0 0
0.949219 0 0
0.949219 0 0
0.953125 0 0
0.953125 0 0
0.957031 0 0
0.957031 0 0
0.960938 0 0
0.960938 0 0
0.964844 0 0
0.964844 0 0
0.96875 0 0
0.96875 0 0
0.972656 0 0
0.972656 0 0
0.976562 0 0
0.976562 0 0
0.980469 0 0
0.980469 0 0
0.984375 0 0
0.984375 0 0
0.988281 0 0
0.988281 0 0
0.992188 0 0
0.992188 0 0
0.996094 0 0
0.996094 0 0
1 0 0

CELLS 256 768
2	0	1
2	2	3
2	4	5
2	6	7
2	8	9
2	10	11
2	12	13
2	14	15
2	16	17
2	18	19
2	20	21
2	22	23
2	24	25
2	26	27
2	28	29
2	30	31
2	32	33
2	34	35
2	36	37
2	38	39
2	40	41
2	42	43
2	44	45
2	46	47
2	48	49
2	50	51
2	52	53
2	54	55
2	56	57
2	58	59
2	60	61
2	62	63
2	64	65
2	66	67
2	68	69
2	70	71
2	72	73
2	74	75
2	76	77
2	78	79
2	80	81
2	82	83
2	84	85
2	86	87
2	88	89
2	90	91
2	92	93
2	94	95
2	96	97
2	98	99
2	100	101
2	102	103
2	104	105
2	106	107
2	108	109
2	110	111
2	112	113
2	114	115
2	116	117
2	118	119
2	120	121
2	122	123
2	124	125
2	126	127
2	128	129
2	130	131
2	132	133
2	134	135
2	136	137
2	138	139
2	140	141
2	142	143
2	144	145
2	146	147
2	148	149
2	150	151
2	152	153
2	154	155
2	156	157
2	158	159
2	160	161
2	162	163
2	164	165
2	166	167
2	168	169
2	170	171
2	172	173
2	174	175
2	176	177
2	178	179
2	180	181
2	182	183
2	184	185
2	186	187
2	188	189
2	190	191
2	192	193
2	194	195
2	196	197
2	198	199
2	200	201
2	202	203
2	204	205
2	206	207
2	208	209
2	210	211
2	212	213
2	214	215
2	216	217
2	218	219
2	220	221
2	222	223
2	224	225
2	226	227
2	228	229
2	230	231
2	232	233
2	234	235
2	236	237
2	238	239
2	240	241
2	242	243
2	244	245
2	246	247
2	248	249
2	250	251
2	252	253
2	254	255
2	256	257
2	258	259
2	260	261
2	262	263
2	264	265
2	266	267
2	268	269
2	270	271
2	272	273
2	274	275
2	276	277
2	278	279
2	280	281
2	282	283
2	284	285
2	286	287
2	288	289
2	290	291
2	292	293
2	294	295
2	296	297
2	298	299
2	300	301
2	302	303
2	304	305
2	306	307
2	308	309
2	310	311
2	312	313
2	314	315
2	316	317
2	318	319
2	320	321
2	322	323
2	324	325
2	326	327
2	328	329
2	330	331
2	332	333
2	334	335
2	336	337
2	338	339
2	340	341
2	342	343
2	344	345
2	346	347
2	348	349
2	350	351
2	352	353
2	354	355
2	356	357
2	358	359
2	360	361
2	362	363
2	364	365
2	366	367
2	368	369
2	370	371
2	372	373
2	374	375
2	376	377
2	378	379
2	380	381
2	382	383
2	384	385
2	386	387
2	388	389
2	390	391
2	392	393
2	394	395
2	396	397
2	398	399
2	400	401
2	402	403
2	404	405
2	406	407
2	408	409
2	410	411
2	412	413
2	414	415
2	416	417
2	418	419
2	420	421
2	422	423
2	424	425
2	426	427
2	428	429
2	430	431
2	432	433
2	434	435
2	436	437
2	438	439
2	440	441
2	442	443
2	444	445
2	446	447
2	448	449
2	450	451
2	452	453
2	454	455
2	456	457
2	458	459
2	460	461
2	462	463
2	464	465
2	466	467
2	468	469
2	470	471
2	472	473
2	474	475
2	476	477
2	478	479
2	480	481
2	482	483
2	484	485
2	486	487
2	488	489
2	490	491
2	492	493
2	494	495
2	496	497
2	498	499
2	500	501
2	502	503
2	504	505
2	506	507
2	508	509
2	510	511

CELL_TYPES 256
 3 3 3 3 3 3 3 3 3 3 3 3 3 3 3 3 3 3 3 3 3 3 3 3 3 3 3 3 3 3 3 3 3 3 3 3 3 3 3 3 3 3 3 3 3 3 3 3 3 3 3 3 3 3 3 3 3 3 3 3 3 3 3 3 3 3 3 3 3 3 3 3 3 3 3 3 3 3 3 3 3 3 3 3 3 3 3 3 3 3 3 3 3 3 3 3 3 3 3 3 3 3 3 3 3 3 3 3 3 3 3 3 3 3 3 3 3 3 3 3 3 3 3 3 3 3 3 3 3 3 3 3 3 3 3 3 3 3 3 3 3 3 3 3 3 3 3 3 3 3 3 3 3 3 3 3 3 3 3 3 3 3 3 3 3 3 3 3 3 3 3 3 3 3 3 3 3 3 3 3 3 3 3 3 3 3 3 3 3 3 3 3 3 3 3 3 3 3 3 3 3 3 3 3 3 3 3 3 3 3 3 3 3 3 3 3 3 3 3 3 3 3 3 3 3 3 3 3 3 3 3 3 3 3 3 3 3 3 3 3 3 3 3 3 3 3 3 3 3 3 3 3 3 3 3 3
POINT_DATA 512
VECTORS displacement double
0 0 0
0.00191697 0 0
0.00191697 0 0
0.00381889 0 0
0.00381889 0 0
0.00570577 0 0
0.00570577 0 0
0.0075776 0 0
0.0075776 0 0
0.00943438 0 0
0.00943438 0 0
0.0112761 0 0
0.0112761 0 0
0.0131028 0 0
0.0131028 0 0
0.0149144 0 0
0.0149144 0 0
0.016711 0 0
0.016711 0 0
0.0184926 0 0
0.0184926 0 0
0.0202591 0 0
0.0202591 0 0
0.0220106 0 0
0.0220106 0 0
0.023747 0 0
0.023747 0 0
0.0254683 0 0
0.0254683 0 0
0.0271747 0 0
0.0271747 0 0
0.0288659 0 0
0.0288659 0 0
0.0305422 0 0
0.0305422 0 0
0.0322034 0 0
0.0322034 0 0
0.0338495 0 0
0.0338495 0 0
0.0354806 0 0
0.0354806 0 0
0.0370967 0 0
0.0370967 0 0
0.0386977 0 0
0.0386977 0 0
0.0402837 0 0
0.0402837 0 0
0.0418546 0 0
0.0418546 0 0
0.0434105 0 0
0.0434105 0 0
0.0449513 0 0
0.0449513 0 0
0.0464771 0 0
0.0464771 0 0
0.0479879 0 0
0.0479879 0 0
0.0494836 0 0
0.0494836 0 0
0.0509643 0 0
0.0509643 0 0
0.05243 0 0
0.05243 0 0
0.0538806 0 0
0.0538806 0 0
0.0553161 0 0
0.0553161 0 0
0.0567366 0 0
0.0567366 0 0
0.0581421 0 0
0.0581421 0 0
0.0595326 0 0
0.0595326 0 0
0.060908 0 0
0.060908 0 0
0.0622683 0 0
0.0622683 0 0
0.0636136 0 0
0.0636136 0 0
0.0649439 0 0
0.0649439 0 0
0.0662592 0 0
0.0662592 0 0
0.0675594 0 0
0.0675594 0 0
0.0688446 0 0
0.0688446 0 0
0.0701147 0 0
0.0701147 0 0
0.0713698 0 0
0.0713698 0 0
0.0726098 0 0
0.0726098 0 0
0.0738349 0 0
0.0738349 0 0
0.0750448 0 0
0.0750448 0 0
0.0762398 0 0
0.0762398 0 0
0.0774197 0 0
0.0774197 0 0
0.0785846 0 0
0.0785846 0 0
0.0797344 0 0
0.0797344 0 0
0.0808692 0 0
0.0808692 0 0
0.081989 0 0
0.081989 0 0
0.0830937 0 0
0.0830937 0 0
0.0841834 0 0
0.0841834 0 0
0.0852581 0 0
0.0852581 0 0
0.0863177 0 0
0.0863177 0 0
0.0873623 0 0
0.0873623 0 0
0.0883918 0 0
0.0883918 0 0
0.0894063 0 0
0.0894063 0 0
0.0904058 0 0
0.0904058 0 0
0.0913903 0 0
0.0913903 0 0
0.0923597 0 0
0.0923597 0 0
0.093314 0 0
0.093314 0 0
0.0942534 0 0
0.0942534 0 0
0.0951777 0 0
0.0951777 0 0
0.096087 0 0
0.096087 0 0
0.0969812 0 0
0.0969812 0 0
0.0978604 0 0
0.0978604 0 0
0.0987246 0 0
0.0987246 0 0
0.0995738 0 0
0.0995738 0 0
0.100408 0 0
0.100408 0 0
0.101227 0 0
0.101227 0 0
0.102031 0 0
0.102031 0 0
0.10282 0 0
0.10282 0 0
0.103594 0 0
0.103594 0 0
0.104353 0 0
0.104353 0 0
0.105097 0 0
0.105097 0 0
0.105826 0 0
0.105826 0 0
0.10654 0 0
0.10654 0 0
0.107238 0 0
0.107238 0 0
0.107922 0 0
0.107922 0 0
0.108591 0 0
0.108591 0 0
0.109245 0 0
0.109245 0 0
0.109883 0 0
0.109883 0 0
0.110507 0 0
0.110507 0 0
0.111116 0 0
0.111116 0 0
0.111709 0 0
0.111709 0 0
0.112288 0 0
0.112288 0 0
0.112852 0 0
0.112852 0 0
0.1134 0 0
0.1134 0 0
0.113934 0 0
0.113934 0 0
0.114452 0 0
0.114452 0 0
0.114956 0 0
0.114956 0 0
0.115444 0 0
0.115444 0 0
0.115917 0 0
0.115917 0 0
0.116376 0 0
0.116376 0 0
0.116819 0 0
0.116819 0 0
0.117247 0 0
0.117247 0 0
0.117661 0 0
0.117661 0 0
0.118059 0 0
0.118059 0 0
0.118442 0 0
0.118442 0 0
0.11881 0 0
0.11881 0 0
0.119163 0 0
0.119163 0 0
0.119501 0 0
0.119501 0 0
0.119825 0 0
0.119825 0 0
0.120133 0 0
0.120133 0 0
0.120426 0 0
0.120426 0 0
0.120704 0 0
0.120704 0 0
0.120967 0 0
0.120967 0 0
0.121215 0 0
0.121215 0 0
0.121448 0 0
0.121448 0 0
0.121665 0 0
0.121665 0 0
0.121868 0 0
0.121868 0 0
0.122056 0 0
0.122056 0 0
0.122229 0 0
0.122229 0 0
0.122387 0 0
0.122387 0 0
0.122529 0 0
0.122529 0 0
0.122657 0 0
0.122657 0 0
0.12277 0 0
0.12277 0 0
0.122868 0 0
0.122868 0 0
0.12295 0 0
0.12295 0 0
0.123018 0 0
0.123018 0 0
0.12307 0 0
0.12307 0 0
0.123108 0 0
0.123108 0 0
0.123131 0 0
0.123131 0 0
0.123138 0 0
0.123138 0 0
0.123131 0 0
0.123131 0 0
0.123108 0 0
0.123108 0 0
0.12307 0 0
0.12307 0 0
0.123018 0 0
0.123018 0 0
0.12295 0 0
0.12295 0 0
0.122868 0 0
0.122868 0 0
0.12277 0 0
0.12277 0 0
0.122657 0 0
0.122657 0 0
0.122529 0 0
0.122529 0 0
0.122387 0 0
0.122387 0 0
0.122229 0 0
0.122229 0 0
0.122056 0 0
0.122056 0 0
0.121868 0 0
0.121868 0 0
0.121665 0 0
0.121665 0 0
0.121448 0 0
0.121448 0 0
0.121215 0 0
0.121215 0 0
0.120967 0 0
0.120967 0 0
0.120704 0 0
0.120704 0 0
0.120426 0 0
0.120426 0 0
0.120133 0 0
0.120133 0 0
0.119825 0 0
0.119825 0 0
0.119501 0 0
0.119501 0 0
0.119163 0 0
0.119163 0 0
0.11881 0 0
0.11881 0 0
0.118442 0 0
0.118442 0 0
0.118059 0 0
0.118059 0 0
0.117661 0 0
0.117661 0 0
0.117247 0 0
0.117247 0 0
0.116819 0 0
0.116819 0 0
0.116376 0 0
0.116376 0 0
0.115917 0 0
0.115917 0 0
0.115444 0 0
0.115444 0 0
0.114956 0 0
0.114956 0 0
0.114452 0 0
0.114452 0 0
0.113934 0 0
0.113934 0 0
0.1134 0 0
0.1134 0 0
0.112852 0 0
0.112852 0 0
0.112288 0 0
0.112288 0 0
0.111709 0 0
0.111709 0 0
0.111116 0 0
0.111116 0 0
0.110507 0 0
0.110507 0 0
0.109883 0 0
0.109883 0 0
0.109245 0 0
0.109245 0 0
0.108591 0 0
0.108591 0 0
0.107922 0 0
0.107922 0 0
0.107238 0 0
0.107238 0 0
0.10654 0 0
0.10654 0 0
0.105826 0 0
0.105826 0 0
0.105097 0 0
0.105097 0 0
0.104353 0 0
0.104353 0 0
0.103594 0 0
0.103594 0 0
0.10282 0 0
0.10282 0 0
0.102031 0 0
0.102031 0 0
0.101227 0 0
0.101227 0 0
0.100408 0 0
0.100408 0 0
0.0995738 0 0
0.0995738 0 0
0.0987246 0 0
0.0987246 0 0
0.0978604 0 0
0.0978604 0 0
0.0969812 0 0
0.0969812 0 0
0.096087 0 0
0.096087 0 0
0.0951777 0 0
0.0951777 0 0
0.0942534 0 0
0.0942534 0 0
0.093314 0 0
0.093314 0 0
0.0923597 0 0
0.0923597 0 0
0.0913903 0 0
0.0913903 0 0
0.0904058 0 0
0.0904058 0 0
0.0894063 0 0
0.0894063 0 0
0.0883918 0 0
0.0883918 0 0
0.0873623 0 0
0.0873623 0 0
0.0863177 0 0
0.0863177 0 0
0.0852581 0 0
0.0852581 0 0
0.0841834 0 0
0.0841834 0 0
0.0830937 0 0
0.0830937 0 0
0.081989 0 0
0.081989 0 0
0.0808692 0 0
0.0808692 0 0
0.0797344 0 0
0.0797344 0 0
0.0785846 0 0
0.0785846 0 0
0.0774197 0 0
0.0774197 0 0
0.0762398 0 0
0.0762398 0 0
0.0750449 0 0
0.0750449 0 0
0.0738349 0 0
0.0738349 0 0
0.0726098 0 0
0.0726098 0 0
0.0713698 0 0
0.0713698 0 0
0.0701147 0 0
0.0701147 0 0
0.0688446 0 0
0.0688446 0 0
0.0675594 0 0
0.0675594 0 0
0.0662592 0 0
0.0662592 0 0
0.0649439 0 0
0.0649439 0 0
0.0636136 0 0
0.0636136 0 0
0.0622683 0 0
0.0622683 0 0
0.060908 0 0
0.060908 0 0
0.0595326 0 0
0.0595326 0 0
0.0581421 0 0
0.0581421 0 0
0.0567366 0 0
0.0567366 0 0
0.0553161 0 0
0.0553161 0 0
0.0538806 0 0
0.0538806 0 0
0.05243 0 0
0.05243 0 0
0.0509643 0 0
0.0509643 0 0
0.0494836 0 0
0.0494836 0 0
0.0479879 0 0
0.0479879 0 0
0.0464771 0 0
0.0464771 0 0
0.0449513 0 0
0.0449513 0 0
0.0434105 0 0
0.0434105 0 0
0.0418546 0 0
0.0418546 0 0
0.0402837 0 0
0.0402837 0 0
0.0386977 0 0
0.0386977 0 0
0.0370967 0 0
0.0370967 0 0
0.0354806 0 0
0.0354806 0 0
0.0338495 0 0
0.0338495 0 0
0.0322034 0 0
0.0322034 0 0
0.0305422 0 0
0.0305422 0 0
0.0288659 0 0
0.0288659 0 0
0.0271747 0 0
0.0271747 0 0
0.0254683 0 0
0.0254683 0 0
0.023747 0 0
0.023747 0 0
0.0220106 0 0
0.0220106 0 0
0.0202591 0 0
0.0202591 0 0
0.0184926 0 0
0.0184926 0 0
0.016711 0 0
0.016711 0 0
0.0149144 0 0
0.0149144 0 0
0.0131028 0 0
0.0131028 0 0
0.0112761 0 0
0.0112761 0 0
0.00943438 0 0
0.00943438 0 0
0.0075776 0 0
0.0075776 0 0
0.00570577 0 0
0.00570577 0 0
0.00381889 0 0
0.00381889 0 0
0.00191697 0 0
0.00191697 0 0
0 0 0
VECTORS velocity double
0 0 0
0.00328044 0 0
0.00328044 0 0
0.00653434 0 0
0.00653434 0 0
0.00976172 0 0
0.00976172 0 0
0.0129626 0 0
0.0129626 0 0
0.016137 0 0
0.016137 0 0
0.0192849 0 0
0.0192849 0 0
0.0224064 0 0
0.0224064 0 0
0.0255014 0 0
0.0255014 0 0
0.0285701 0 0
0.0285701 0 0
0.0316123 0 0
0.0316123 0 0
0.0346281 0 0
0.0346281 0 0
0.0376176 0 0
0.0376176 0 0
0.0405807 0 0
0.0405807 0 0
0.0435174 0 0
0.0435174 0 0
0.0464278 0 0
0.0464278 0 0
0.049312 0 0
0.049312 0 0
0.0521698 0 0
0.0521698 0 0
0.0550013 0 0
0.0550013 0 0
0.0578066 0 0
0.0578066 0 0
0.0605857 0 0
0.0605857 0 0
0.0633385 0 0
0.0633385 0 0
0.0660651 0 0
0.0660651 0 0
0.0687655 0 0
0.0687655 0 0
0.0714397 0 0
0.0714397 0 0
0.0740877 0 0
0.0740877 0 0
0.0767096 0 0
0.0767096 0 0
0.0793053 0 0
0.0793053 0 0
0.0818749 0 0
0.0818749 0 0
0.0844184 0 0
0.0844184 0 0
0.0869358 0 0
0.0869358 0 0
0.0894271 0 0
0.0894271 0 0
0.0918923 0 0
0.0918923 0 0
0.0943315 0 0
0.0943315 0 0
0.0967447 0 0
0.0967447 0 0
0.0991318 0 0
0.0991318 0 0
0.101493 0 0
0.101493 0 0
0.103828 0 0
0.103828 0 0
0.106137 0 0
0.106137 0 0
0.10842 0 0
0.10842 0 0
0.110678 0 0
0.110678 0 0
0.112909 0 0
0.112909 0 0
0.115114 0 0
0.115114 0 0
0.117294 0 0
0.117294 0 0
0.119447 0 0
0.119447 0 0
0.121575 0 0
0.121575 0 0
0.123677 0 0
0.123677 0 0
0.125753 0 0
0.125753 0 0
0.127803 0 0
0.127803 0 0
0.129827 0 0
0.129827 0 0
0.131826 0 0
0.131826 0 0
0.133798 0 0
0.133798 0 0
0.135745 0 0
0.135745 0 0
0.137666 0 0
0.137666 0 0
0.139562 0 0
0.139562 0 0
0.141431 0 0
0.141431 0 0
0.143275 0 0
0.143275 0 0
0.145093 0 0
0.145093 0 0
0.146886 0 0
0.146886 0 0
0.148652 0 0
0.148652 0 0
0.150393 0 0
0.150393 0 0
0.152108 0 0
0.152108 0 0
0.153798 0 0
0.153798 0 0
0.155462 0 0
0.155462 0 0
0.1571 0 0
0.1571 0 0
0.158713 0 0
0.158713 0 0
0.1603 0 0
0.1603 0 0
0.161862 0 0
0.161862 0 0
0.163397 0 0
0.163397 0 0
0.164908 0 0
0.164908 0 0
0.166392 0 0
0.166392 0 0
0.167851 0 0
0.167851 0 0
0.169285 0 0
0.169285 0 0
0.170693 0 0
0.170693 0 0
0.172075 0 0
0.172075 0 0
0.173432 0 0
0.173432 0 0
0.174763 0 0
0.174763 0 0
0.176069 0 0
0.176069 0 0
0.177349 0 0
0.177349 0 0
0.178604 0 0
0.178604 0 0
0.179834 0 0
0.179834 0 0
0.181037 0 0
0.181037 0 0
0.182216 0 0
0.182216 0 0
0.183369 0 0
0.183369 0 0
0.184496 0 0
0.184496 0 0
0.185598 0 0
0.185598 0 0
0.186674 0 0
0.186674 0 0
0.187725 0 0
0.187725 0 0
0.188751 0 0
0.188751 0 0
0.189751 0 0
0.189751 0 0
0.190726 0 0
0.190726 0 0
0.191675 0 0
0.191675 0 0
0.192599 0 0
0.192599 0 0
0.193498 0 0
0.193498 0 0
0.194371 0 0
0.194371 0 0
0.195219 0 0
0.195219 0 0
0.196041 0 0
0.196041 0 0
0.196838 0 0
0.196838 0 0
0.19761 0 0
0.19761 0 0
0.198357 0 0
0.198357 0 0
0.199078 0 0
0.199078 0 0
0.199773 0 0
0.199773 0 0
0.200444 0 0
0.200444 0 0
0.201089 0 0
0.201089 0 0
0.201708 0 0
0.201708 0 0
0.202302 0 0
0.202302 0 0
0.202871 0 0
0.202871 0 0
0.203415 0 0
0.203415 0 0
0.203934 0 0
0.203934 0 0
0.204427 0 0
0.204427 0 0
0.204894 0 0
0.204894 0 0
0.205337 0 0
0.205337 0 0
0.205754 0 0
0.205754 0 0
0.206146 0 0
0.206146 0 0
0.206512 0 0
0.206512 0 0
0.206854 0 0
0.206854 0 0
0.20717 0 0
0.20717 0 0
0.20746 0 0
0.20746 0 0
0.207726 0 0
0.207726 0 0
0.207966 0 0
0.207966 0 0
0.208181 0 0
0.208181 0 0
0.20837 0 0
0.20837 0 0
0.208535 0 0
0.208535 0 0
0.208674 0 0
0.208674 0 0
0.208787 0 0
0.208787 0 0
0.208876 0 0
0.208876 0 0
0.208939 0 0
0.208939 0 0
0.208977 0 0
0.208977 0 0
0.20899 0 0
0.20899 0 0
0.208977 0 0
0.208977 0 0
0.208939 0 0
0.208939 0 0
0.208876 0 0
0.208876 0 0
0.208787 0 0
0.208787 0 0
0.208674 0 0
0.208674 0 0
0.208535 0 0
0.208535 0 0
0.20837 0 0
0.20837 0 0
0.208181 0 0
0.208181 0 0
0.207966 0 0
0.207966 0 0
0.207726 0 0
0.207726 0 0
0.20746 0 0
0.20746 0 0
0.20717 0 0
0.20717 0 0
0.206854 0 0
0.206854 0 0
0.206512 0 0
0.206512 0 0
0.206146 0 0
0.206146 0 0
0.205754 0 0
0.205754 0 0
0.205337 0 0
0.205337 0 0
0.204894 0 0
0.204894 0 0
0.204427 0 0
0.204427 0 0
0.203934 0 0
0.203934 0 0
0.203415 0 0
0.203415 0 0
0.202871 0 0
0.202871 0 0
0.202302 0 0
0.202302 0 0
0.201708 0 0
0.201708 0 0
0.201089 0 0
0.201089 0 0
0.200444 0 0
0.200444 0 0
0.199773 0 0
0.199773 0 0
0.199078 0 0
0.199078 0 0
0.198357 0 0
0.198357 0 0
0.19761 0 0
0.19761 0 0
0.196838 0 0
0.196838 0 0
0.196041 0 0
0.196041 0 0
0.195219 0 0
0.195219 0 0
0.194371 0 0
0.194371 0 0
0.193498 0 0
0.193498 0 0
0.192599 0 0
0.192599 0 0
0.191675 0 0
0.191675 0 0
0.190726 0 0
0.190726 0 0
0.189751 0 0
0.189751 0 0
0.188751 0 0
0.188751 0 0
0.187725 0 0
0.187725 0 0
0.186674 0 0
0.186674 0 0
0.185598 0 0
0.185598 0 0
0.184496 0 0
0.184496 0 0
0.183369 0 0
0.183369 0 0
0.182216 0 0
0.182216 0 0
0.181037 0 0
0.181037 0 0
0.179834 0 0
0.179834 0 0
0.178604 0 0
0.178604 0 0
0.177349 0 0
0.177349 0 0
0.176069 0 0
0.176069 0 0
0.174763 0 0
0.174763 0 0
0.173432 0 0
0.173432 0 0
0.172075 0 0
0.172075 0 0
0.170693 0 0
0.170693 0 0
0.169285 0 0
0.169285 0 0
0.167851 0 0
0.167851 0 0
0.166392 0 0
0.166392 0 0
0.164908 0 0
0.164908 0 0
0.163397 0 0
0.163397 0 0
0.161862 0 0
0.161862 0 0
0.1603 0 0
0.1603 0 0
0.158713 0 0
0.158713 0 0
0.1571 0 0
0.1571 0 0
0.155462 0 0
0.155462 0 0
0.153798 0 0
0.153798 0 0
0.152108 0 0
0.152108 0 0
0.150393 0 0
0.150393 0 0
0.148652 0 0
0.148652 0 0
0.146886 0 0
0.146886 0 0
0.145093 0 0
0.145093 0 0
0.143275 0 0
0.143275 0 0
0.141431 0 0
0.141431 0 0
0.139562 0 0
0.139562 0 0
0.137666 0 0
0.137666 0 0
0.135745 0 0
0.135745 0 0
0.133798 0 0
0.133798 0 0
0.131826 0 0
0.131826 0 0
0.129827 0 0
0.129827 0 0
0.127803 0 0
0.127803 0 0
0.125753 0 0
0.125753 0 0
0.123677 0 0
0.123677 0 0
0.121575 0 0
0.121575 0 0
0.119447 0 0
0.119447 0 0
0.117294 0 0
0.117294 0 0
0.115114 0 0
0.115114 0 0
0.112909 0 0
0.112909 0 0
0.110678 0 0
0.110678 0 0
0.10842 0 0
0.10842 0 0
0.106137 0 0
0.106137 0 0
0.103828 0 0
0.103828 0 0
0.101493 0 0
0.101493 0 0
0.0991318 0 0
0.0991318 0 0
0.0967447 0 0
0.0967447 0 0
0.0943315 0 0
0.0943315 0 0
0.0918923 0 0
0.0918923 0 0
0.0894271 0 0
0.0894271 0 0
0.0869358 0 0
0.0869358 0 0
0.0844184 0 0
0.0844184 0 0
0.0818749 0 0
0.0818749 0 0
0.0793053 0 0
0.0793053 0 0
0.0767096 0 0
0.0767096 0 0
0.0740877 0 0
0.0740877 0 0
0.0714397 0 0
0.0714397 0 0
0.0687655 0 0
0.0687655 0 0
0.0660651 0 0
0.0660651 0 0
0.0633385 0 0
0.0633385 0 0
0.0605857 0 0
0.0605857 0 0
0.0578066 0 0
0.0578066 0 0
0.0550013 0 0
0.0550013 0 0
0.0521698 0 0
0.0521698 0 0
0.049312 0 0
0.049312 0 0
0.0464278 0 0
0.0464278 0 0
0.0435174 0 0
0.0435174 0 0
0.0405807 0 0
0.0405807 0 0
0.0376176 0 0
0.0376176 0 0
0.0346281 0 0
0.0346281 0 0
0.0316123 0 0
0.0316123 0 0
0.0285701 0 0
0.0285701 0 0
0.0255014 0 0
0.0255014 0 0
0.0224064 0 0
0.0224064 0 0
0.0192849 0 0
0.0192849 0 0
0.016137 0 0
0.016137 0 0
0.0129626 0 0
0.0129626 0 0
0.00976172 0 0
0.00976172 0 0
0.00653434 0 0
0.00653434 0 0
0.00328044 0 0
0.00328044 0 0
0 0 0
