# vtk DataFile Version 3.0
#This file was generated by the deal.II library on 2025/3/27 at 12:28:50
ASCII
DATASET UNSTRUCTURED_GRID

FIELD FieldData 1
TIME 1 1 double
0.976562
POINTS 64 double
0 0 0
0.03125 0 0
0.03125 0 0
0.0625 0 0
0.0625 0 0
0.09375 0 0
0.09375 0 0
0.125 0 0
0.125 0 0
0.15625 0 0
0.15625 0 0
0.1875 0 0
0.1875 0 0
0.21875 0 0
0.21875 0 0
0.25 0 0
0.25 0 0
0.28125 0 0
0.28125 0 0
0.3125 0 0
0.3125 0 0
0.34375 0 0
0.34375 0 0
0.375 0 0
0.375 0 0
0.40625 0 0
0.40625 0 0
0.4375 0 0
0.4375 0 0
0.46875 0 0
0.46875 0 0
0.5 0 0
0.5 0 0
0.53125 0 0
0.53125 0 0
0.5625 0 0
0.5625 0 0
0.59375 0 0
0.59375 0 0
0.625 0 0
0.625 0 0
0.65625 0 0
0.65625 0 0
0.6875 0 0
0.6875 0 0
0.71875 0 0
0.71875 0 0
0.75 0 0
0.75 0 0
0.78125 0 0
0.78125 0 0
0.8125 0 0
0.8125 0 0
0.84375 0 0
0.84375 0 0
0.875 0 0
0.875 0 0
0.90625 0 0
0.90625 0 0
0.9375 0 0
0.9375 0 0
0.96875 0 0
0.96875 0 0
1 0 0

CELLS 32 96
2	0	1
2	2	3
2	4	5
2	6	7
2	8	9
2	10	11
2	12	13
2	14	15
2	16	17
2	18	19
2	20	21
2	22	23
2	24	25
2	26	27
2	28	29
2	30	31
2	32	33
2	34	35
2	36	37
2	38	39
2	40	41
2	42	43
2	44	45
2	46	47
2	48	49
2	50	51
2	52	53
2	54	55
2	56	57
2	58	59
2	60	61
2	62	63

CELL_TYPES 32
 3 3 3 3 3 3 3 3 3 3 3 3 3 3 3 3 3 3 3 3 3 3 3 3 3 3 3 3 3 3 3 3
POINT_DATA 64
VECTORS displacement double
0 0 0
0.0812077 0 0
0.0812077 0 0
0.161633 0 0
0.161633 0 0
0.240502 0 0
0.240502 0 0
0.317055 0 0
0.317055 0 0
0.390554 0 0
0.390554 0 0
0.460293 0 0
0.460293 0 0
0.525598 0 0
0.525598 0 0
0.585841 0 0
0.585841 0 0
0.640443 0 0
0.640443 0 0
0.688876 0 0
0.688876 0 0
0.730676 0 0
0.730676 0 0
0.765438 0 0
0.765438 0 0
0.79283 0 0
0.79283 0 0
0.812585 0 0
0.812585 0 0
0.824515 0 0
0.824515 0 0
0.828505 0 0
0.828505 0 0
0.824515 0 0
0.824515 0 0
0.812585 0 0
0.812585 0 0
0.79283 0 0
0.79283 0 0
0.765438 0 0
0.765438 0 0
0.730676 0 0
0.730676 0 0
0.688876 0 0
0.688876 0 0
0.640443 0 0
0.640443 0 0
0.585841 0 0
0.585841 0 0
0.525598 0 0
0.525598 0 0
0.460293 0 0
0.460293 0 0
0.390554 0 0
0.390554 0 0
0.317055 0 0
0.317055 0 0
0.240502 0 0
0.240502 0 0
0.161633 0 0
0.161633 0 0
0.0812077 0 0
0.0812077 0 0
0 0 0
VECTORS velocity double
0 0 0
0.0548635 0 0
0.0548635 0 0
0.109199 0 0
0.109199 0 0
0.162482 0 0
0.162482 0 0
0.214201 0 0
0.214201 0 0
0.263857 0 0
0.263857 0 0
0.310972 0 0
0.310972 0 0
0.355091 0 0
0.355091 0 0
0.395792 0 0
0.395792 0 0
0.43268 0 0
0.43268 0 0
0.465402 0 0
0.465402 0 0
0.493641 0 0
0.493641 0 0
0.517127 0 0
0.517127 0 0
0.535632 0 0
0.535632 0 0
0.548979 0 0
0.548979 0 0
0.557039 0 0
0.557039 0 0
0.559734 0 0
0.559734 0 0
0.557039 0 0
0.557039 0 0
0.548979 0 0
0.548979 0 0
0.535632 0 0
0.535632 0 0
0.517127 0 0
0.517127 0 0
0.493641 0 0
0.493641 0 0
0.465402 0 0
0.465402 0 0
0.43268 0 0
0.43268 0 0
0.395792 0 0
0.395792 0 0
0.355091 0 0
0.355091 0 0
0.310972 0 0
0.310972 0 0
0.263857 0 0
0.263857 0 0
0.214201 0 0
0.214201 0 0
0.162482 0 0
0.162482 0 0
0.109199 0 0
0.109199 0 0
0.0548635 0 0
0.0548635 0 0
0 0 0
