# vtk DataFile Version 3.0
#This file was generated by the deal.II library on 2025/3/27 at 12:28:51
ASCII
DATASET UNSTRUCTURED_GRID

FIELD FieldData 1
TIME 1 1 double
2.02344
POINTS 64 double
0 0 0
0.03125 0 0
0.03125 0 0
0.0625 0 0
0.0625 0 0
0.09375 0 0
0.09375 0 0
0.125 0 0
0.125 0 0
0.15625 0 0
0.15625 0 0
0.1875 0 0
0.1875 0 0
0.21875 0 0
0.21875 0 0
0.25 0 0
0.25 0 0
0.28125 0 0
0.28125 0 0
0.3125 0 0
0.3125 0 0
0.34375 0 0
0.34375 0 0
0.375 0 0
0.375 0 0
0.40625 0 0
0.40625 0 0
0.4375 0 0
0.4375 0 0
0.46875 0 0
0.46875 0 0
0.5 0 0
0.5 0 0
0.53125 0 0
0.53125 0 0
0.5625 0 0
0.5625 0 0
0.59375 0 0
0.59375 0 0
0.625 0 0
0.625 0 0
0.65625 0 0
0.65625 0 0
0.6875 0 0
0.6875 0 0
0.71875 0 0
0.71875 0 0
0.75 0 0
0.75 0 0
0.78125 0 0
0.78125 0 0
0.8125 0 0
0.8125 0 0
0.84375 0 0
0.84375 0 0
0.875 0 0
0.875 0 0
0.90625 0 0
0.90625 0 0
0.9375 0 0
0.9375 0 0
0.96875 0 0
0.96875 0 0
1 0 0

CELLS 32 96
2	0	1
2	2	3
2	4	5
2	6	7
2	8	9
2	10	11
2	12	13
2	14	15
2	16	17
2	18	19
2	20	21
2	22	23
2	24	25
2	26	27
2	28	29
2	30	31
2	32	33
2	34	35
2	36	37
2	38	39
2	40	41
2	42	43
2	44	45
2	46	47
2	48	49
2	50	51
2	52	53
2	54	55
2	56	57
2	58	59
2	60	61
2	62	63

CELL_TYPES 32
 3 3 3 3 3 3 3 3 3 3 3 3 3 3 3 3 3 3 3 3 3 3 3 3 3 3 3 3 3 3 3 3
POINT_DATA 64
VECTORS displacement double
0 0 0
0.0881386 0 0
0.0881386 0 0
0.175428 0 0
0.175428 0 0
0.261029 0 0
0.261029 0 0
0.344115 0 0
0.344115 0 0
0.423888 0 0
0.423888 0 0
0.499578 0 0
0.499578 0 0
0.570457 0 0
0.570457 0 0
0.635842 0 0
0.635842 0 0
0.695104 0 0
0.695104 0 0
0.747671 0 0
0.747671 0 0
0.793038 0 0
0.793038 0 0
0.830768 0 0
0.830768 0 0
0.860496 0 0
0.860496 0 0
0.881938 0 0
0.881938 0 0
0.894886 0 0
0.894886 0 0
0.899216 0 0
0.899216 0 0
0.894886 0 0
0.894886 0 0
0.881938 0 0
0.881938 0 0
0.860496 0 0
0.860496 0 0
0.830768 0 0
0.830768 0 0
0.793038 0 0
0.793038 0 0
0.747671 0 0
0.747671 0 0
0.695104 0 0
0.695104 0 0
0.635842 0 0
0.635842 0 0
0.570457 0 0
0.570457 0 0
0.499578 0 0
0.499578 0 0
0.423888 0 0
0.423888 0 0
0.344115 0 0
0.344115 0 0
0.261029 0 0
0.261029 0 0
0.175428 0 0
0.175428 0 0
0.0881386 0 0
0.0881386 0 0
0 0 0
VECTORS velocity double
0 0 0
-0.0428545 0 0
-0.0428545 0 0
-0.0852963 0 0
-0.0852963 0 0
-0.126917 0 0
-0.126917 0 0
-0.167315 0 0
-0.167315 0 0
-0.206101 0 0
-0.206101 0 0
-0.242903 0 0
-0.242903 0 0
-0.277366 0 0
-0.277366 0 0
-0.309157 0 0
-0.309157 0 0
-0.337971 0 0
-0.337971 0 0
-0.36353 0 0
-0.36353 0 0
-0.385589 0 0
-0.385589 0 0
-0.403933 0 0
-0.403933 0 0
-0.418388 0 0
-0.418388 0 0
-0.428813 0 0
-0.428813 0 0
-0.435109 0 0
-0.435109 0 0
-0.437214 0 0
-0.437214 0 0
-0.435109 0 0
-0.435109 0 0
-0.428813 0 0
-0.428813 0 0
-0.418388 0 0
-0.418388 0 0
-0.403933 0 0
-0.403933 0 0
-0.385589 0 0
-0.385589 0 0
-0.36353 0 0
-0.36353 0 0
-0.337971 0 0
-0.337971 0 0
-0.309157 0 0
-0.309157 0 0
-0.277366 0 0
-0.277366 0 0
-0.242903 0 0
-0.242903 0 0
-0.206101 0 0
-0.206101 0 0
-0.167315 0 0
-0.167315 0 0
-0.126917 0 0
-0.126917 0 0
-0.0852963 0 0
-0.0852963 0 0
-0.0428545 0 0
-0.0428545 0 0
0 0 0
