# vtk DataFile Version 3.0
#This file was generated by the deal.II library on 2025/3/27 at 12:28:50
ASCII
DATASET UNSTRUCTURED_GRID

FIELD FieldData 1
TIME 1 1 double
1.375
POINTS 64 double
0 0 0
0.03125 0 0
0.03125 0 0
0.0625 0 0
0.0625 0 0
0.09375 0 0
0.09375 0 0
0.125 0 0
0.125 0 0
0.15625 0 0
0.15625 0 0
0.1875 0 0
0.1875 0 0
0.21875 0 0
0.21875 0 0
0.25 0 0
0.25 0 0
0.28125 0 0
0.28125 0 0
0.3125 0 0
0.3125 0 0
0.34375 0 0
0.34375 0 0
0.375 0 0
0.375 0 0
0.40625 0 0
0.40625 0 0
0.4375 0 0
0.4375 0 0
0.46875 0 0
0.46875 0 0
0.5 0 0
0.5 0 0
0.53125 0 0
0.53125 0 0
0.5625 0 0
0.5625 0 0
0.59375 0 0
0.59375 0 0
0.625 0 0
0.625 0 0
0.65625 0 0
0.65625 0 0
0.6875 0 0
0.6875 0 0
0.71875 0 0
0.71875 0 0
0.75 0 0
0.75 0 0
0.78125 0 0
0.78125 0 0
0.8125 0 0
0.8125 0 0
0.84375 0 0
0.84375 0 0
0.875 0 0
0.875 0 0
0.90625 0 0
0.90625 0 0
0.9375 0 0
0.9375 0 0
0.96875 0 0
0.96875 0 0
1 0 0

CELLS 32 96
2	0	1
2	2	3
2	4	5
2	6	7
2	8	9
2	10	11
2	12	13
2	14	15
2	16	17
2	18	19
2	20	21
2	22	23
2	24	25
2	26	27
2	28	29
2	30	31
2	32	33
2	34	35
2	36	37
2	38	39
2	40	41
2	42	43
2	44	45
2	46	47
2	48	49
2	50	51
2	52	53
2	54	55
2	56	57
2	58	59
2	60	61
2	62	63

CELL_TYPES 32
 3 3 3 3 3 3 3 3 3 3 3 3 3 3 3 3 3 3 3 3 3 3 3 3 3 3 3 3 3 3 3 3
POINT_DATA 64
VECTORS displacement double
0 0 0
0.0961331 0 0
0.0961331 0 0
0.19134 0 0
0.19134 0 0
0.284705 0 0
0.284705 0 0
0.375327 0 0
0.375327 0 0
0.462336 0 0
0.462336 0 0
0.544891 0 0
0.544891 0 0
0.622199 0 0
0.622199 0 0
0.693515 0 0
0.693515 0 0
0.758152 0 0
0.758152 0 0
0.815487 0 0
0.815487 0 0
0.864969 0 0
0.864969 0 0
0.906121 0 0
0.906121 0 0
0.938546 0 0
0.938546 0 0
0.961933 0 0
0.961933 0 0
0.976055 0 0
0.976055 0 0
0.980778 0 0
0.980778 0 0
0.976055 0 0
0.976055 0 0
0.961933 0 0
0.961933 0 0
0.938546 0 0
0.938546 0 0
0.906121 0 0
0.906121 0 0
0.864969 0 0
0.864969 0 0
0.815487 0 0
0.815487 0 0
0.758152 0 0
0.758152 0 0
0.693515 0 0
0.693515 0 0
0.622199 0 0
0.622199 0 0
0.544891 0 0
0.544891 0 0
0.462336 0 0
0.462336 0 0
0.375327 0 0
0.375327 0 0
0.284705 0 0
0.284705 0 0
0.19134 0 0
0.19134 0 0
0.0961331 0 0
0.0961331 0 0
0 0 0
VECTORS velocity double
0 0 0
0.0190639 0 0
0.0190639 0 0
0.0379443 0 0
0.0379443 0 0
0.0564592 0 0
0.0564592 0 0
0.0744304 0 0
0.0744304 0 0
0.0916848 0 0
0.0916848 0 0
0.108056 0 0
0.108056 0 0
0.123387 0 0
0.123387 0 0
0.137529 0 0
0.137529 0 0
0.150347 0 0
0.150347 0 0
0.161718 0 0
0.161718 0 0
0.17153 0 0
0.17153 0 0
0.179691 0 0
0.179691 0 0
0.186121 0 0
0.186121 0 0
0.190759 0 0
0.190759 0 0
0.193559 0 0
0.193559 0 0
0.194496 0 0
0.194496 0 0
0.193559 0 0
0.193559 0 0
0.190759 0 0
0.190759 0 0
0.186121 0 0
0.186121 0 0
0.179691 0 0
0.179691 0 0
0.17153 0 0
0.17153 0 0
0.161718 0 0
0.161718 0 0
0.150347 0 0
0.150347 0 0
0.137529 0 0
0.137529 0 0
0.123387 0 0
0.123387 0 0
0.108056 0 0
0.108056 0 0
0.0916848 0 0
0.0916848 0 0
0.0744304 0 0
0.0744304 0 0
0.0564592 0 0
0.0564592 0 0
0.0379443 0 0
0.0379443 0 0
0.0190639 0 0
0.0190639 0 0
0 0 0
