# vtk DataFile Version 3.0
#This file was generated by the deal.II library on 2025/4/1 at 13:00:35
ASCII
DATASET UNSTRUCTURED_GRID

FIELD FieldData 1
TIME 1 1 double
1.09552
POINTS 128 double
0 0 0
0.015625 0 0
0.015625 0 0
0.03125 0 0
0.03125 0 0
0.046875 0 0
0.046875 0 0
0.0625 0 0
0.0625 0 0
0.078125 0 0
0.078125 0 0
0.09375 0 0
0.09375 0 0
0.109375 0 0
0.109375 0 0
0.125 0 0
0.125 0 0
0.140625 0 0
0.140625 0 0
0.15625 0 0
0.15625 0 0
0.171875 0 0
0.171875 0 0
0.1875 0 0
0.1875 0 0
0.203125 0 0
0.203125 0 0
0.21875 0 0
0.21875 0 0
0.234375 0 0
0.234375 0 0
0.25 0 0
0.25 0 0
0.265625 0 0
0.265625 0 0
0.28125 0 0
0.28125 0 0
0.296875 0 0
0.296875 0 0
0.3125 0 0
0.3125 0 0
0.328125 0 0
0.328125 0 0
0.34375 0 0
0.34375 0 0
0.359375 0 0
0.359375 0 0
0.375 0 0
0.375 0 0
0.390625 0 0
0.390625 0 0
0.40625 0 0
0.40625 0 0
0.421875 0 0
0.421875 0 0
0.4375 0 0
0.4375 0 0
0.453125 0 0
0.453125 0 0
0.46875 0 0
0.46875 0 0
0.484375 0 0
0.484375 0 0
0.5 0 0
0.5 0 0
0.515625 0 0
0.515625 0 0
0.53125 0 0
0.53125 0 0
0.546875 0 0
0.546875 0 0
0.5625 0 0
0.5625 0 0
0.578125 0 0
0.578125 0 0
0.59375 0 0
0.59375 0 0
0.609375 0 0
0.609375 0 0
0.625 0 0
0.625 0 0
0.640625 0 0
0.640625 0 0
0.65625 0 0
0.65625 0 0
0.671875 0 0
0.671875 0 0
0.6875 0 0
0.6875 0 0
0.703125 0 0
0.703125 0 0
0.71875 0 0
0.71875 0 0
0.734375 0 0
0.734375 0 0
0.75 0 0
0.75 0 0
0.765625 0 0
0.765625 0 0
0.78125 0 0
0.78125 0 0
0.796875 0 0
0.796875 0 0
0.8125 0 0
0.8125 0 0
0.828125 0 0
0.828125 0 0
0.84375 0 0
0.84375 0 0
0.859375 0 0
0.859375 0 0
0.875 0 0
0.875 0 0
0.890625 0 0
0.890625 0 0
0.90625 0 0
0.90625 0 0
0.921875 0 0
0.921875 0 0
0.9375 0 0
0.9375 0 0
0.953125 0 0
0.953125 0 0
0.96875 0 0
0.96875 0 0
0.984375 0 0
0.984375 0 0
1 0 0

CELLS 64 192
2	0	1
2	2	3
2	4	5
2	6	7
2	8	9
2	10	11
2	12	13
2	14	15
2	16	17
2	18	19
2	20	21
2	22	23
2	24	25
2	26	27
2	28	29
2	30	31
2	32	33
2	34	35
2	36	37
2	38	39
2	40	41
2	42	43
2	44	45
2	46	47
2	48	49
2	50	51
2	52	53
2	54	55
2	56	57
2	58	59
2	60	61
2	62	63
2	64	65
2	66	67
2	68	69
2	70	71
2	72	73
2	74	75
2	76	77
2	78	79
2	80	81
2	82	83
2	84	85
2	86	87
2	88	89
2	90	91
2	92	93
2	94	95
2	96	97
2	98	99
2	100	101
2	102	103
2	104	105
2	106	107
2	108	109
2	110	111
2	112	113
2	114	115
2	116	117
2	118	119
2	120	121
2	122	123
2	124	125
2	126	127

CELL_TYPES 64
 3 3 3 3 3 3 3 3 3 3 3 3 3 3 3 3 3 3 3 3 3 3 3 3 3 3 3 3 3 3 3 3 3 3 3 3 3 3 3 3 3 3 3 3 3 3 3 3 3 3 3 3 3 3 3 3 3 3 3 3 3 3 3 3
POINT_DATA 128
VECTORS displacement double
0 0 0
0.0136131 0 0
0.0136131 0 0
0.0267921 0 0
0.0267921 0 0
0.0395375 0 0
0.0395375 0 0
0.0518492 0 0
0.0518492 0 0
0.0637275 0 0
0.0637275 0 0
0.0751726 0 0
0.0751726 0 0
0.0861847 0 0
0.0861847 0 0
0.0967639 0 0
0.0967639 0 0
0.10691 0 0
0.10691 0 0
0.116624 0 0
0.116624 0 0
0.125906 0 0
0.125906 0 0
0.134755 0 0
0.134755 0 0
0.143173 0 0
0.143173 0 0
0.151158 0 0
0.151158 0 0
0.158711 0 0
0.158711 0 0
0.165832 0 0
0.165832 0 0
0.172522 0 0
0.172522 0 0
0.17878 0 0
0.17878 0 0
0.184606 0 0
0.184606 0 0
0.19 0 0
0.19 0 0
0.194963 0 0
0.194963 0 0
0.199494 0 0
0.199494 0 0
0.203594 0 0
0.203594 0 0
0.207262 0 0
0.207262 0 0
0.210498 0 0
0.210498 0 0
0.213303 0 0
0.213303 0 0
0.215676 0 0
0.215676 0 0
0.217618 0 0
0.217618 0 0
0.219128 0 0
0.219128 0 0
0.220207 0 0
0.220207 0 0
0.220854 0 0
0.220854 0 0
0.22107 0 0
0.22107 0 0
0.220854 0 0
0.220854 0 0
0.220207 0 0
0.220207 0 0
0.219128 0 0
0.219128 0 0
0.217618 0 0
0.217618 0 0
0.215676 0 0
0.215676 0 0
0.213303 0 0
0.213303 0 0
0.210498 0 0
0.210498 0 0
0.207262 0 0
0.207262 0 0
0.203594 0 0
0.203594 0 0
0.199494 0 0
0.199494 0 0
0.194963 0 0
0.194963 0 0
0.19 0 0
0.19 0 0
0.184606 0 0
0.184606 0 0
0.17878 0 0
0.17878 0 0
0.172522 0 0
0.172522 0 0
0.165832 0 0
0.165832 0 0
0.158711 0 0
0.158711 0 0
0.151158 0 0
0.151158 0 0
0.143173 0 0
0.143173 0 0
0.134755 0 0
0.134755 0 0
0.125906 0 0
0.125906 0 0
0.116624 0 0
0.116624 0 0
0.10691 0 0
0.10691 0 0
0.0967639 0 0
0.0967639 0 0
0.0861847 0 0
0.0861847 0 0
0.0751726 0 0
0.0751726 0 0
0.0637275 0 0
0.0637275 0 0
0.0518492 0 0
0.0518492 0 0
0.0395375 0 0
0.0395375 0 0
0.0267921 0 0
0.0267921 0 0
0.0136131 0 0
0.0136131 0 0
0 0 0
VECTORS velocity double
0 0 0
0.00719861 0 0
0.00719861 0 0
0.0141703 0 0
0.0141703 0 0
0.0209135 0 0
0.0209135 0 0
0.0274265 0 0
0.0274265 0 0
0.0337083 0 0
0.0337083 0 0
0.0397579 0 0
0.0397579 0 0
0.0455746 0 0
0.0455746 0 0
0.0511583 0 0
0.0511583 0 0
0.0565089 0 0
0.0565089 0 0
0.0616269 0 0
0.0616269 0 0
0.0665127 0 0
0.0665127 0 0
0.071167 0 0
0.071167 0 0
0.0755905 0 0
0.0755905 0 0
0.079784 0 0
0.079784 0 0
0.0837483 0 0
0.0837483 0 0
0.0874839 0 0
0.0874839 0 0
0.0909915 0 0
0.0909915 0 0
0.0942716 0 0
0.0942716 0 0
0.0973247 0 0
0.0973247 0 0
0.100151 0 0
0.100151 0 0
0.102751 0 0
0.102751 0 0
0.105124 0 0
0.105124 0 0
0.107271 0 0
0.107271 0 0
0.109192 0 0
0.109192 0 0
0.110887 0 0
0.110887 0 0
0.112356 0 0
0.112356 0 0
0.113599 0 0
0.113599 0 0
0.114616 0 0
0.114616 0 0
0.115407 0 0
0.115407 0 0
0.115972 0 0
0.115972 0 0
0.116311 0 0
0.116311 0 0
0.116424 0 0
0.116424 0 0
0.116311 0 0
0.116311 0 0
0.115972 0 0
0.115972 0 0
0.115407 0 0
0.115407 0 0
0.114616 0 0
0.114616 0 0
0.113599 0 0
0.113599 0 0
0.112356 0 0
0.112356 0 0
0.110887 0 0
0.110887 0 0
0.109192 0 0
0.109192 0 0
0.107271 0 0
0.107271 0 0
0.105124 0 0
0.105124 0 0
0.102751 0 0
0.102751 0 0
0.100151 0 0
0.100151 0 0
0.0973247 0 0
0.0973247 0 0
0.0942716 0 0
0.0942716 0 0
0.0909915 0 0
0.0909915 0 0
0.0874839 0 0
0.0874839 0 0
0.0837483 0 0
0.0837483 0 0
0.079784 0 0
0.079784 0 0
0.0755905 0 0
0.0755905 0 0
0.071167 0 0
0.071167 0 0
0.0665127 0 0
0.0665127 0 0
0.0616269 0 0
0.0616269 0 0
0.0565089 0 0
0.0565089 0 0
0.0511583 0 0
0.0511583 0 0
0.0455746 0 0
0.0455746 0 0
0.0397579 0 0
0.0397579 0 0
0.0337083 0 0
0.0337083 0 0
0.0274265 0 0
0.0274265 0 0
0.0209135 0 0
0.0209135 0 0
0.0141703 0 0
0.0141703 0 0
0.00719861 0 0
0.00719861 0 0
0 0 0
