# vtk DataFile Version 3.0
#This file was generated by the deal.II library on 2025/4/1 at 13:00:34
ASCII
DATASET UNSTRUCTURED_GRID

FIELD FieldData 1
TIME 1 1 double
1.05653
POINTS 128 double
0 0 0
0.015625 0 0
0.015625 0 0
0.03125 0 0
0.03125 0 0
0.046875 0 0
0.046875 0 0
0.0625 0 0
0.0625 0 0
0.078125 0 0
0.078125 0 0
0.09375 0 0
0.09375 0 0
0.109375 0 0
0.109375 0 0
0.125 0 0
0.125 0 0
0.140625 0 0
0.140625 0 0
0.15625 0 0
0.15625 0 0
0.171875 0 0
0.171875 0 0
0.1875 0 0
0.1875 0 0
0.203125 0 0
0.203125 0 0
0.21875 0 0
0.21875 0 0
0.234375 0 0
0.234375 0 0
0.25 0 0
0.25 0 0
0.265625 0 0
0.265625 0 0
0.28125 0 0
0.28125 0 0
0.296875 0 0
0.296875 0 0
0.3125 0 0
0.3125 0 0
0.328125 0 0
0.328125 0 0
0.34375 0 0
0.34375 0 0
0.359375 0 0
0.359375 0 0
0.375 0 0
0.375 0 0
0.390625 0 0
0.390625 0 0
0.40625 0 0
0.40625 0 0
0.421875 0 0
0.421875 0 0
0.4375 0 0
0.4375 0 0
0.453125 0 0
0.453125 0 0
0.46875 0 0
0.46875 0 0
0.484375 0 0
0.484375 0 0
0.5 0 0
0.5 0 0
0.515625 0 0
0.515625 0 0
0.53125 0 0
0.53125 0 0
0.546875 0 0
0.546875 0 0
0.5625 0 0
0.5625 0 0
0.578125 0 0
0.578125 0 0
0.59375 0 0
0.59375 0 0
0.609375 0 0
0.609375 0 0
0.625 0 0
0.625 0 0
0.640625 0 0
0.640625 0 0
0.65625 0 0
0.65625 0 0
0.671875 0 0
0.671875 0 0
0.6875 0 0
0.6875 0 0
0.703125 0 0
0.703125 0 0
0.71875 0 0
0.71875 0 0
0.734375 0 0
0.734375 0 0
0.75 0 0
0.75 0 0
0.765625 0 0
0.765625 0 0
0.78125 0 0
0.78125 0 0
0.796875 0 0
0.796875 0 0
0.8125 0 0
0.8125 0 0
0.828125 0 0
0.828125 0 0
0.84375 0 0
0.84375 0 0
0.859375 0 0
0.859375 0 0
0.875 0 0
0.875 0 0
0.890625 0 0
0.890625 0 0
0.90625 0 0
0.90625 0 0
0.921875 0 0
0.921875 0 0
0.9375 0 0
0.9375 0 0
0.953125 0 0
0.953125 0 0
0.96875 0 0
0.96875 0 0
0.984375 0 0
0.984375 0 0
1 0 0

CELLS 64 192
2	0	1
2	2	3
2	4	5
2	6	7
2	8	9
2	10	11
2	12	13
2	14	15
2	16	17
2	18	19
2	20	21
2	22	23
2	24	25
2	26	27
2	28	29
2	30	31
2	32	33
2	34	35
2	36	37
2	38	39
2	40	41
2	42	43
2	44	45
2	46	47
2	48	49
2	50	51
2	52	53
2	54	55
2	56	57
2	58	59
2	60	61
2	62	63
2	64	65
2	66	67
2	68	69
2	70	71
2	72	73
2	74	75
2	76	77
2	78	79
2	80	81
2	82	83
2	84	85
2	86	87
2	88	89
2	90	91
2	92	93
2	94	95
2	96	97
2	98	99
2	100	101
2	102	103
2	104	105
2	106	107
2	108	109
2	110	111
2	112	113
2	114	115
2	116	117
2	118	119
2	120	121
2	122	123
2	124	125
2	126	127

CELL_TYPES 64
 3 3 3 3 3 3 3 3 3 3 3 3 3 3 3 3 3 3 3 3 3 3 3 3 3 3 3 3 3 3 3 3 3 3 3 3 3 3 3 3 3 3 3 3 3 3 3 3 3 3 3 3 3 3 3 3 3 3 3 3 3 3 3 3
POINT_DATA 128
VECTORS displacement double
0 0 0
0.0133246 0 0
0.0133246 0 0
0.0262244 0 0
0.0262244 0 0
0.0386996 0 0
0.0386996 0 0
0.0507504 0 0
0.0507504 0 0
0.062377 0 0
0.062377 0 0
0.0735798 0 0
0.0735798 0 0
0.0843588 0 0
0.0843588 0 0
0.0947144 0 0
0.0947144 0 0
0.104646 0 0
0.104646 0 0
0.114155 0 0
0.114155 0 0
0.123241 0 0
0.123241 0 0
0.131904 0 0
0.131904 0 0
0.140144 0 0
0.140144 0 0
0.147961 0 0
0.147961 0 0
0.155355 0 0
0.155355 0 0
0.162327 0 0
0.162327 0 0
0.168876 0 0
0.168876 0 0
0.175002 0 0
0.175002 0 0
0.180705 0 0
0.180705 0 0
0.185986 0 0
0.185986 0 0
0.190845 0 0
0.190845 0 0
0.195281 0 0
0.195281 0 0
0.199294 0 0
0.199294 0 0
0.202885 0 0
0.202885 0 0
0.206053 0 0
0.206053 0 0
0.208799 0 0
0.208799 0 0
0.211123 0 0
0.211123 0 0
0.213024 0 0
0.213024 0 0
0.214502 0 0
0.214502 0 0
0.215558 0 0
0.215558 0 0
0.216192 0 0
0.216192 0 0
0.216403 0 0
0.216403 0 0
0.216192 0 0
0.216192 0 0
0.215558 0 0
0.215558 0 0
0.214502 0 0
0.214502 0 0
0.213024 0 0
0.213024 0 0
0.211123 0 0
0.211123 0 0
0.208799 0 0
0.208799 0 0
0.206053 0 0
0.206053 0 0
0.202885 0 0
0.202885 0 0
0.199294 0 0
0.199294 0 0
0.195281 0 0
0.195281 0 0
0.190845 0 0
0.190845 0 0
0.185986 0 0
0.185986 0 0
0.180705 0 0
0.180705 0 0
0.175002 0 0
0.175002 0 0
0.168876 0 0
0.168876 0 0
0.162327 0 0
0.162327 0 0
0.155355 0 0
0.155355 0 0
0.147961 0 0
0.147961 0 0
0.140144 0 0
0.140144 0 0
0.131904 0 0
0.131904 0 0
0.123241 0 0
0.123241 0 0
0.114155 0 0
0.114155 0 0
0.104646 0 0
0.104646 0 0
0.0947144 0 0
0.0947144 0 0
0.0843588 0 0
0.0843588 0 0
0.0735798 0 0
0.0735798 0 0
0.062377 0 0
0.062377 0 0
0.0507504 0 0
0.0507504 0 0
0.0386996 0 0
0.0386996 0 0
0.0262244 0 0
0.0262244 0 0
0.0133246 0 0
0.0133246 0 0
0 0 0
VECTORS velocity double
0 0 0
0.0076928 0 0
0.0076928 0 0
0.0151422 0 0
0.0151422 0 0
0.0223468 0 0
0.0223468 0 0
0.0293054 0 0
0.0293054 0 0
0.0360171 0 0
0.0360171 0 0
0.0424812 0 0
0.0424812 0 0
0.0486975 0 0
0.0486975 0 0
0.054666 0 0
0.054666 0 0
0.0603869 0 0
0.0603869 0 0
0.0658608 0 0
0.0658608 0 0
0.0710882 0 0
0.0710882 0 0
0.0760698 0 0
0.0760698 0 0
0.0808061 0 0
0.0808061 0 0
0.0852978 0 0
0.0852978 0 0
0.0895454 0 0
0.0895454 0 0
0.0935492 0 0
0.0935492 0 0
0.0973097 0 0
0.0973097 0 0
0.100827 0 0
0.100827 0 0
0.104102 0 0
0.104102 0 0
0.107133 0 0
0.107133 0 0
0.109922 0 0
0.109922 0 0
0.112469 0 0
0.112469 0 0
0.114773 0 0
0.114773 0 0
0.116834 0 0
0.116834 0 0
0.118653 0 0
0.118653 0 0
0.120229 0 0
0.120229 0 0
0.121563 0 0
0.121563 0 0
0.122654 0 0
0.122654 0 0
0.123503 0 0
0.123503 0 0
0.12411 0 0
0.12411 0 0
0.124473 0 0
0.124473 0 0
0.124595 0 0
0.124595 0 0
0.124473 0 0
0.124473 0 0
0.12411 0 0
0.12411 0 0
0.123503 0 0
0.123503 0 0
0.122654 0 0
0.122654 0 0
0.121563 0 0
0.121563 0 0
0.120229 0 0
0.120229 0 0
0.118653 0 0
0.118653 0 0
0.116834 0 0
0.116834 0 0
0.114773 0 0
0.114773 0 0
0.112469 0 0
0.112469 0 0
0.109922 0 0
0.109922 0 0
0.107133 0 0
0.107133 0 0
0.104102 0 0
0.104102 0 0
0.100827 0 0
0.100827 0 0
0.0973097 0 0
0.0973097 0 0
0.0935492 0 0
0.0935492 0 0
0.0895454 0 0
0.0895454 0 0
0.0852978 0 0
0.0852978 0 0
0.0808061 0 0
0.0808061 0 0
0.0760698 0 0
0.0760698 0 0
0.0710882 0 0
0.0710882 0 0
0.0658608 0 0
0.0658608 0 0
0.0603869 0 0
0.0603869 0 0
0.054666 0 0
0.054666 0 0
0.0486975 0 0
0.0486975 0 0
0.0424812 0 0
0.0424812 0 0
0.0360171 0 0
0.0360171 0 0
0.0293054 0 0
0.0293054 0 0
0.0223468 0 0
0.0223468 0 0
0.0151422 0 0
0.0151422 0 0
0.0076928 0 0
0.0076928 0 0
0 0 0
