# vtk DataFile Version 3.0
#This file was generated by the deal.II library on 2025/3/27 at 12:15:49
ASCII
DATASET UNSTRUCTURED_GRID

FIELD FieldData 1
TIME 1 1 double
1.60547
POINTS 64 double
0 0 0
0.03125 0 0
0.03125 0 0
0.0625 0 0
0.0625 0 0
0.09375 0 0
0.09375 0 0
0.125 0 0
0.125 0 0
0.15625 0 0
0.15625 0 0
0.1875 0 0
0.1875 0 0
0.21875 0 0
0.21875 0 0
0.25 0 0
0.25 0 0
0.28125 0 0
0.28125 0 0
0.3125 0 0
0.3125 0 0
0.34375 0 0
0.34375 0 0
0.375 0 0
0.375 0 0
0.40625 0 0
0.40625 0 0
0.4375 0 0
0.4375 0 0
0.46875 0 0
0.46875 0 0
0.5 0 0
0.5 0 0
0.53125 0 0
0.53125 0 0
0.5625 0 0
0.5625 0 0
0.59375 0 0
0.59375 0 0
0.625 0 0
0.625 0 0
0.65625 0 0
0.65625 0 0
0.6875 0 0
0.6875 0 0
0.71875 0 0
0.71875 0 0
0.75 0 0
0.75 0 0
0.78125 0 0
0.78125 0 0
0.8125 0 0
0.8125 0 0
0.84375 0 0
0.84375 0 0
0.875 0 0
0.875 0 0
0.90625 0 0
0.90625 0 0
0.9375 0 0
0.9375 0 0
0.96875 0 0
0.96875 0 0
1 0 0

CELLS 32 96
2	0	1
2	2	3
2	4	5
2	6	7
2	8	9
2	10	11
2	12	13
2	14	15
2	16	17
2	18	19
2	20	21
2	22	23
2	24	25
2	26	27
2	28	29
2	30	31
2	32	33
2	34	35
2	36	37
2	38	39
2	40	41
2	42	43
2	44	45
2	46	47
2	48	49
2	50	51
2	52	53
2	54	55
2	56	57
2	58	59
2	60	61
2	62	63

CELL_TYPES 32
 3 3 3 3 3 3 3 3 3 3 3 3 3 3 3 3 3 3 3 3 3 3 3 3 3 3 3 3 3 3 3 3
POINT_DATA 64
VECTORS displacement double
0 0 0
0.0982494 0 0
0.0982494 0 0
0.195553 0 0
0.195553 0 0
0.290973 0 0
0.290973 0 0
0.38359 0 0
0.38359 0 0
0.472514 0 0
0.472514 0 0
0.556887 0 0
0.556887 0 0
0.635897 0 0
0.635897 0 0
0.708782 0 0
0.708782 0 0
0.774842 0 0
0.774842 0 0
0.83344 0 0
0.83344 0 0
0.884011 0 0
0.884011 0 0
0.926069 0 0
0.926069 0 0
0.959208 0 0
0.959208 0 0
0.983109 0 0
0.983109 0 0
0.997543 0 0
0.997543 0 0
1.00237 0 0
1.00237 0 0
0.997543 0 0
0.997543 0 0
0.983109 0 0
0.983109 0 0
0.959208 0 0
0.959208 0 0
0.926069 0 0
0.926069 0 0
0.884011 0 0
0.884011 0 0
0.83344 0 0
0.83344 0 0
0.774842 0 0
0.774842 0 0
0.708782 0 0
0.708782 0 0
0.635897 0 0
0.635897 0 0
0.556887 0 0
0.556887 0 0
0.472514 0 0
0.472514 0 0
0.38359 0 0
0.38359 0 0
0.290973 0 0
0.290973 0 0
0.195553 0 0
0.195553 0 0
0.0982494 0 0
0.0982494 0 0
0 0 0
VECTORS velocity double
0 0 0
-0.000648157 0 0
-0.000648157 0 0
-0.00129007 0 0
-0.00129007 0 0
-0.00191956 0 0
-0.00191956 0 0
-0.00253057 0 0
-0.00253057 0 0
-0.0031172 0 0
-0.0031172 0 0
-0.00367381 0 0
-0.00367381 0 0
-0.00419504 0 0
-0.00419504 0 0
-0.00467588 0 0
-0.00467588 0 0
-0.00511168 0 0
-0.00511168 0 0
-0.00549825 0 0
-0.00549825 0 0
-0.00583187 0 0
-0.00583187 0 0
-0.00610933 0 0
-0.00610933 0 0
-0.00632795 0 0
-0.00632795 0 0
-0.00648563 0 0
-0.00648563 0 0
-0.00658085 0 0
-0.00658085 0 0
-0.00661269 0 0
-0.00661269 0 0
-0.00658085 0 0
-0.00658085 0 0
-0.00648563 0 0
-0.00648563 0 0
-0.00632795 0 0
-0.00632795 0 0
-0.00610933 0 0
-0.00610933 0 0
-0.00583187 0 0
-0.00583187 0 0
-0.00549825 0 0
-0.00549825 0 0
-0.00511168 0 0
-0.00511168 0 0
-0.00467588 0 0
-0.00467588 0 0
-0.00419504 0 0
-0.00419504 0 0
-0.00367381 0 0
-0.00367381 0 0
-0.0031172 0 0
-0.0031172 0 0
-0.00253057 0 0
-0.00253057 0 0
-0.00191956 0 0
-0.00191956 0 0
-0.00129007 0 0
-0.00129007 0 0
-0.000648157 0 0
-0.000648157 0 0
0 0 0
