# vtk DataFile Version 3.0
#This file was generated by the deal.II library on 2025/4/1 at 12:59:06
ASCII
DATASET UNSTRUCTURED_GRID

FIELD FieldData 1
TIME 1 1 double
1.69531
POINTS 256 double
0 0 0
0.0078125 0 0
0.0078125 0 0
0.015625 0 0
0.015625 0 0
0.0234375 0 0
0.0234375 0 0
0.03125 0 0
0.03125 0 0
0.0390625 0 0
0.0390625 0 0
0.046875 0 0
0.046875 0 0
0.0546875 0 0
0.0546875 0 0
0.0625 0 0
0.0625 0 0
0.0703125 0 0
0.0703125 0 0
0.078125 0 0
0.078125 0 0
0.0859375 0 0
0.0859375 0 0
0.09375 0 0
0.09375 0 0
0.101562 0 0
0.101562 0 0
0.109375 0 0
0.109375 0 0
0.117188 0 0
0.117188 0 0
0.125 0 0
0.125 0 0
0.132812 0 0
0.132812 0 0
0.140625 0 0
0.140625 0 0
0.148438 0 0
0.148438 0 0
0.15625 0 0
0.15625 0 0
0.164062 0 0
0.164062 0 0
0.171875 0 0
0.171875 0 0
0.179688 0 0
0.179688 0 0
0.1875 0 0
0.1875 0 0
0.195312 0 0
0.195312 0 0
0.203125 0 0
0.203125 0 0
0.210938 0 0
0.210938 0 0
0.21875 0 0
0.21875 0 0
0.226562 0 0
0.226562 0 0
0.234375 0 0
0.234375 0 0
0.242188 0 0
0.242188 0 0
0.25 0 0
0.25 0 0
0.257812 0 0
0.257812 0 0
0.265625 0 0
0.265625 0 0
0.273438 0 0
0.273438 0 0
0.28125 0 0
0.28125 0 0
0.289062 0 0
0.289062 0 0
0.296875 0 0
0.296875 0 0
0.304688 0 0
0.304688 0 0
0.3125 0 0
0.3125 0 0
0.320312 0 0
0.320312 0 0
0.328125 0 0
0.328125 0 0
0.335938 0 0
0.335938 0 0
0.34375 0 0
0.34375 0 0
0.351562 0 0
0.351562 0 0
0.359375 0 0
0.359375 0 0
0.367188 0 0
0.367188 0 0
0.375 0 0
0.375 0 0
0.382812 0 0
0.382812 0 0
0.390625 0 0
0.390625 0 0
0.398438 0 0
0.398438 0 0
0.40625 0 0
0.40625 0 0
0.414062 0 0
0.414062 0 0
0.421875 0 0
0.421875 0 0
0.429688 0 0
0.429688 0 0
0.4375 0 0
0.4375 0 0
0.445312 0 0
0.445312 0 0
0.453125 0 0
0.453125 0 0
0.460938 0 0
0.460938 0 0
0.46875 0 0
0.46875 0 0
0.476562 0 0
0.476562 0 0
0.484375 0 0
0.484375 0 0
0.492188 0 0
0.492188 0 0
0.5 0 0
0.5 0 0
0.507812 0 0
0.507812 0 0
0.515625 0 0
0.515625 0 0
0.523438 0 0
0.523438 0 0
0.53125 0 0
0.53125 0 0
0.539062 0 0
0.539062 0 0
0.546875 0 0
0.546875 0 0
0.554688 0 0
0.554688 0 0
0.5625 0 0
0.5625 0 0
0.570312 0 0
0.570312 0 0
0.578125 0 0
0.578125 0 0
0.585938 0 0
0.585938 0 0
0.59375 0 0
0.59375 0 0
0.601562 0 0
0.601562 0 0
0.609375 0 0
0.609375 0 0
0.617188 0 0
0.617188 0 0
0.625 0 0
0.625 0 0
0.632812 0 0
0.632812 0 0
0.640625 0 0
0.640625 0 0
0.648438 0 0
0.648438 0 0
0.65625 0 0
0.65625 0 0
0.664062 0 0
0.664062 0 0
0.671875 0 0
0.671875 0 0
0.679688 0 0
0.679688 0 0
0.6875 0 0
0.6875 0 0
0.695312 0 0
0.695312 0 0
0.703125 0 0
0.703125 0 0
0.710938 0 0
0.710938 0 0
0.71875 0 0
0.71875 0 0
0.726562 0 0
0.726562 0 0
0.734375 0 0
0.734375 0 0
0.742188 0 0
0.742188 0 0
0.75 0 0
0.75 0 0
0.757812 0 0
0.757812 0 0
0.765625 0 0
0.765625 0 0
0.773438 0 0
0.773438 0 0
0.78125 0 0
0.78125 0 0
0.789062 0 0
0.789062 0 0
0.796875 0 0
0.796875 0 0
0.804688 0 0
0.804688 0 0
0.8125 0 0
0.8125 0 0
0.820312 0 0
0.820312 0 0
0.828125 0 0
0.828125 0 0
0.835938 0 0
0.835938 0 0
0.84375 0 0
0.84375 0 0
0.851562 0 0
0.851562 0 0
0.859375 0 0
0.859375 0 0
0.867188 0 0
0.867188 0 0
0.875 0 0
0.875 0 0
0.882812 0 0
0.882812 0 0
0.890625 0 0
0.890625 0 0
0.898438 0 0
0.898438 0 0
0.90625 0 0
0.90625 0 0
0.914062 0 0
0.914062 0 0
0.921875 0 0
0.921875 0 0
0.929688 0 0
0.929688 0 0
0.9375 0 0
0.9375 0 0
0.945312 0 0
0.945312 0 0
0.953125 0 0
0.953125 0 0
0.960938 0 0
0.960938 0 0
0.96875 0 0
0.96875 0 0
0.976562 0 0
0.976562 0 0
0.984375 0 0
0.984375 0 0
0.992188 0 0
0.992188 0 0
1 0 0

CELLS 128 384
2	0	1
2	2	3
2	4	5
2	6	7
2	8	9
2	10	11
2	12	13
2	14	15
2	16	17
2	18	19
2	20	21
2	22	23
2	24	25
2	26	27
2	28	29
2	30	31
2	32	33
2	34	35
2	36	37
2	38	39
2	40	41
2	42	43
2	44	45
2	46	47
2	48	49
2	50	51
2	52	53
2	54	55
2	56	57
2	58	59
2	60	61
2	62	63
2	64	65
2	66	67
2	68	69
2	70	71
2	72	73
2	74	75
2	76	77
2	78	79
2	80	81
2	82	83
2	84	85
2	86	87
2	88	89
2	90	91
2	92	93
2	94	95
2	96	97
2	98	99
2	100	101
2	102	103
2	104	105
2	106	107
2	108	109
2	110	111
2	112	113
2	114	115
2	116	117
2	118	119
2	120	121
2	122	123
2	124	125
2	126	127
2	128	129
2	130	131
2	132	133
2	134	135
2	136	137
2	138	139
2	140	141
2	142	143
2	144	145
2	146	147
2	148	149
2	150	151
2	152	153
2	154	155
2	156	157
2	158	159
2	160	161
2	162	163
2	164	165
2	166	167
2	168	169
2	170	171
2	172	173
2	174	175
2	176	177
2	178	179
2	180	181
2	182	183
2	184	185
2	186	187
2	188	189
2	190	191
2	192	193
2	194	195
2	196	197
2	198	199
2	200	201
2	202	203
2	204	205
2	206	207
2	208	209
2	210	211
2	212	213
2	214	215
2	216	217
2	218	219
2	220	221
2	222	223
2	224	225
2	226	227
2	228	229
2	230	231
2	232	233
2	234	235
2	236	237
2	238	239
2	240	241
2	242	243
2	244	245
2	246	247
2	248	249
2	250	251
2	252	253
2	254	255

CELL_TYPES 128
 3 3 3 3 3 3 3 3 3 3 3 3 3 3 3 3 3 3 3 3 3 3 3 3 3 3 3 3 3 3 3 3 3 3 3 3 3 3 3 3 3 3 3 3 3 3 3 3 3 3 3 3 3 3 3 3 3 3 3 3 3 3 3 3 3 3 3 3 3 3 3 3 3 3 3 3 3 3 3 3 3 3 3 3 3 3 3 3 3 3 3 3 3 3 3 3 3 3 3 3 3 3 3 3 3 3 3 3 3 3 3 3 3 3 3 3 3 3 3 3 3 3 3 3 3 3 3 3
POINT_DATA 256
VECTORS displacement double
0 0 0
0.00769149 0 0
0.00769149 0 0
0.0152619 0 0
0.0152619 0 0
0.0227111 0 0
0.0227111 0 0
0.0300392 0 0
0.0300392 0 0
0.0372462 0 0
0.0372462 0 0
0.044332 0 0
0.044332 0 0
0.0512968 0 0
0.0512968 0 0
0.0581404 0 0
0.0581404 0 0
0.0648629 0 0
0.0648629 0 0
0.0714642 0 0
0.0714642 0 0
0.0779445 0 0
0.0779445 0 0
0.0843036 0 0
0.0843036 0 0
0.0905416 0 0
0.0905416 0 0
0.0966584 0 0
0.0966584 0 0
0.102654 0 0
0.102654 0 0
0.108529 0 0
0.108529 0 0
0.114282 0 0
0.114282 0 0
0.119915 0 0
0.119915 0 0
0.125426 0 0
0.125426 0 0
0.130816 0 0
0.130816 0 0
0.136085 0 0
0.136085 0 0
0.141233 0 0
0.141233 0 0
0.146259 0 0
0.146259 0 0
0.151165 0 0
0.151165 0 0
0.15595 0 0
0.15595 0 0
0.160613 0 0
0.160613 0 0
0.165155 0 0
0.165155 0 0
0.169576 0 0
0.169576 0 0
0.173876 0 0
0.173876 0 0
0.178055 0 0
0.178055 0 0
0.182113 0 0
0.182113 0 0
0.186049 0 0
0.186049 0 0
0.189865 0 0
0.189865 0 0
0.193559 0 0
0.193559 0 0
0.197132 0 0
0.197132 0 0
0.200584 0 0
0.200584 0 0
0.203915 0 0
0.203915 0 0
0.207125 0 0
0.207125 0 0
0.210214 0 0
0.210214 0 0
0.213182 0 0
0.213182 0 0
0.216028 0 0
0.216028 0 0
0.218753 0 0
0.218753 0 0
0.221358 0 0
0.221358 0 0
0.223841 0 0
0.223841 0 0
0.226203 0 0
0.226203 0 0
0.228443 0 0
0.228443 0 0
0.230563 0 0
0.230563 0 0
0.232562 0 0
0.232562 0 0
0.234439 0 0
0.234439 0 0
0.236196 0 0
0.236196 0 0
0.237831 0 0
0.237831 0 0
0.239345 0 0
0.239345 0 0
0.240738 0 0
0.240738 0 0
0.24201 0 0
0.24201 0 0
0.24316 0 0
0.24316 0 0
0.24419 0 0
0.24419 0 0
0.245098 0 0
0.245098 0 0
0.245886 0 0
0.245886 0 0
0.246552 0 0
0.246552 0 0
0.247097 0 0
0.247097 0 0
0.247521 0 0
0.247521 0 0
0.247824 0 0
0.247824 0 0
0.248005 0 0
0.248005 0 0
0.248066 0 0
0.248066 0 0
0.248005 0 0
0.248005 0 0
0.247824 0 0
0.247824 0 0
0.247521 0 0
0.247521 0 0
0.247097 0 0
0.247097 0 0
0.246552 0 0
0.246552 0 0
0.245886 0 0
0.245886 0 0
0.245098 0 0
0.245098 0 0
0.24419 0 0
0.24419 0 0
0.24316 0 0
0.24316 0 0
0.24201 0 0
0.24201 0 0
0.240738 0 0
0.240738 0 0
0.239345 0 0
0.239345 0 0
0.237831 0 0
0.237831 0 0
0.236196 0 0
0.236196 0 0
0.234439 0 0
0.234439 0 0
0.232562 0 0
0.232562 0 0
0.230563 0 0
0.230563 0 0
0.228443 0 0
0.228443 0 0
0.226203 0 0
0.226203 0 0
0.223841 0 0
0.223841 0 0
0.221358 0 0
0.221358 0 0
0.218753 0 0
0.218753 0 0
0.216028 0 0
0.216028 0 0
0.213182 0 0
0.213182 0 0
0.210214 0 0
0.210214 0 0
0.207125 0 0
0.207125 0 0
0.203915 0 0
0.203915 0 0
0.200584 0 0
0.200584 0 0
0.197132 0 0
0.197132 0 0
0.193559 0 0
0.193559 0 0
0.189865 0 0
0.189865 0 0
0.186049 0 0
0.186049 0 0
0.182113 0 0
0.182113 0 0
0.178055 0 0
0.178055 0 0
0.173876 0 0
0.173876 0 0
0.169576 0 0
0.169576 0 0
0.165155 0 0
0.165155 0 0
0.160613 0 0
0.160613 0 0
0.15595 0 0
0.15595 0 0
0.151165 0 0
0.151165 0 0
0.146259 0 0
0.146259 0 0
0.141233 0 0
0.141233 0 0
0.136085 0 0
0.136085 0 0
0.130816 0 0
0.130816 0 0
0.125426 0 0
0.125426 0 0
0.119915 0 0
0.119915 0 0
0.114282 0 0
0.114282 0 0
0.108529 0 0
0.108529 0 0
0.102654 0 0
0.102654 0 0
0.0966584 0 0
0.0966584 0 0
0.0905416 0 0
0.0905416 0 0
0.0843036 0 0
0.0843036 0 0
0.0779445 0 0
0.0779445 0 0
0.0714642 0 0
0.0714642 0 0
0.0648629 0 0
0.0648629 0 0
0.0581404 0 0
0.0581404 0 0
0.0512968 0 0
0.0512968 0 0
0.044332 0 0
0.044332 0 0
0.0372462 0 0
0.0372462 0 0
0.0300392 0 0
0.0300392 0 0
0.0227111 0 0
0.0227111 0 0
0.0152619 0 0
0.0152619 0 0
0.00769149 0 0
0.00769149 0 0
0 0 0
VECTORS velocity double
0 0 0
-0.000962648 0 0
-0.000962648 0 0
-0.00191012 0 0
-0.00191012 0 0
-0.00284242 0 0
-0.00284242 0 0
-0.00375956 0 0
-0.00375956 0 0
-0.00466154 0 0
-0.00466154 0 0
-0.00554836 0 0
-0.00554836 0 0
-0.00642001 0 0
-0.00642001 0 0
-0.0072765 0 0
-0.0072765 0 0
-0.00811783 0 0
-0.00811783 0 0
-0.00894398 0 0
-0.00894398 0 0
-0.00975495 0 0
-0.00975495 0 0
-0.0105508 0 0
-0.0105508 0 0
-0.0113314 0 0
-0.0113314 0 0
-0.0120969 0 0
-0.0120969 0 0
-0.0128472 0 0
-0.0128472 0 0
-0.0135824 0 0
-0.0135824 0 0
-0.0143024 0 0
-0.0143024 0 0
-0.0150073 0 0
-0.0150073 0 0
-0.015697 0 0
-0.015697 0 0
-0.0163716 0 0
-0.0163716 0 0
-0.017031 0 0
-0.017031 0 0
-0.0176752 0 0
-0.0176752 0 0
-0.0183042 0 0
-0.0183042 0 0
-0.0189181 0 0
-0.0189181 0 0
-0.0195169 0 0
-0.0195169 0 0
-0.0201005 0 0
-0.0201005 0 0
-0.0206689 0 0
-0.0206689 0 0
-0.0212222 0 0
-0.0212222 0 0
-0.0217603 0 0
-0.0217603 0 0
-0.0222833 0 0
-0.0222833 0 0
-0.0227911 0 0
-0.0227911 0 0
-0.0232838 0 0
-0.0232838 0 0
-0.0237613 0 0
-0.0237613 0 0
-0.0242237 0 0
-0.0242237 0 0
-0.0246709 0 0
-0.0246709 0 0
-0.025103 0 0
-0.025103 0 0
-0.0255198 0 0
-0.0255198 0 0
-0.0259216 0 0
-0.0259216 0 0
-0.0263082 0 0
-0.0263082 0 0
-0.0266796 0 0
-0.0266796 0 0
-0.0270358 0 0
-0.0270358 0 0
-0.0273769 0 0
-0.0273769 0 0
-0.0277028 0 0
-0.0277028 0 0
-0.0280136 0 0
-0.0280136 0 0
-0.0283092 0 0
-0.0283092 0 0
-0.0285897 0 0
-0.0285897 0 0
-0.028855 0 0
-0.028855 0 0
-0.0291051 0 0
-0.0291051 0 0
-0.0293401 0 0
-0.0293401 0 0
-0.0295599 0 0
-0.0295599 0 0
-0.0297645 0 0
-0.0297645 0 0
-0.029954 0 0
-0.029954 0 0
-0.0301284 0 0
-0.0301284 0 0
-0.0302875 0 0
-0.0302875 0 0
-0.0304316 0 0
-0.0304316 0 0
-0.0305604 0 0
-0.0305604 0 0
-0.0306741 0 0
-0.0306741 0 0
-0.0307726 0 0
-0.0307726 0 0
-0.030856 0 0
-0.030856 0 0
-0.0309242 0 0
-0.0309242 0 0
-0.0309773 0 0
-0.0309773 0 0
-0.0310152 0 0
-0.0310152 0 0
-0.0310379 0 0
-0.0310379 0 0
-0.0310455 0 0
-0.0310455 0 0
-0.0310379 0 0
-0.0310379 0 0
-0.0310152 0 0
-0.0310152 0 0
-0.0309773 0 0
-0.0309773 0 0
-0.0309242 0 0
-0.0309242 0 0
-0.030856 0 0
-0.030856 0 0
-0.0307726 0 0
-0.0307726 0 0
-0.0306741 0 0
-0.0306741 0 0
-0.0305604 0 0
-0.0305604 0 0
-0.0304316 0 0
-0.0304316 0 0
-0.0302875 0 0
-0.0302875 0 0
-0.0301284 0 0
-0.0301284 0 0
-0.029954 0 0
-0.029954 0 0
-0.0297645 0 0
-0.0297645 0 0
-0.0295599 0 0
-0.0295599 0 0
-0.0293401 0 0
-0.0293401 0 0
-0.0291051 0 0
-0.0291051 0 0
-0.028855 0 0
-0.028855 0 0
-0.0285897 0 0
-0.0285897 0 0
-0.0283092 0 0
-0.0283092 0 0
-0.0280136 0 0
-0.0280136 0 0
-0.0277028 0 0
-0.0277028 0 0
-0.0273769 0 0
-0.0273769 0 0
-0.0270358 0 0
-0.0270358 0 0
-0.0266796 0 0
-0.0266796 0 0
-0.0263082 0 0
-0.0263082 0 0
-0.0259216 0 0
-0.0259216 0 0
-0.0255198 0 0
-0.0255198 0 0
-0.025103 0 0
-0.025103 0 0
-0.0246709 0 0
-0.0246709 0 0
-0.0242237 0 0
-0.0242237 0 0
-0.0237613 0 0
-0.0237613 0 0
-0.0232838 0 0
-0.0232838 0 0
-0.0227911 0 0
-0.0227911 0 0
-0.0222833 0 0
-0.0222833 0 0
-0.0217603 0 0
-0.0217603 0 0
-0.0212222 0 0
-0.0212222 0 0
-0.0206689 0 0
-0.0206689 0 0
-0.0201005 0 0
-0.0201005 0 0
-0.0195169 0 0
-0.0195169 0 0
-0.0189181 0 0
-0.0189181 0 0
-0.0183042 0 0
-0.0183042 0 0
-0.0176752 0 0
-0.0176752 0 0
-0.017031 0 0
-0.017031 0 0
-0.0163716 0 0
-0.0163716 0 0
-0.015697 0 0
-0.015697 0 0
-0.0150073 0 0
-0.0150073 0 0
-0.0143024 0 0
-0.0143024 0 0
-0.0135824 0 0
-0.0135824 0 0
-0.0128472 0 0
-0.0128472 0 0
-0.0120969 0 0
-0.0120969 0 0
-0.0113314 0 0
-0.0113314 0 0
-0.0105508 0 0
-0.0105508 0 0
-0.00975495 0 0
-0.00975495 0 0
-0.00894398 0 0
-0.00894398 0 0
-0.00811783 0 0
-0.00811783 0 0
-0.0072765 0 0
-0.0072765 0 0
-0.00642001 0 0
-0.00642001 0 0
-0.00554836 0 0
-0.00554836 0 0
-0.00466154 0 0
-0.00466154 0 0
-0.00375956 0 0
-0.00375956 0 0
-0.00284242 0 0
-0.00284242 0 0
-0.00191012 0 0
-0.00191012 0 0
-0.000962648 0 0
-0.000962648 0 0
0 0 0
