# vtk DataFile Version 3.0
#This file was generated by the deal.II library on 2025/4/1 at 12:59:09
ASCII
DATASET UNSTRUCTURED_GRID

FIELD FieldData 1
TIME 1 1 double
3.27344
POINTS 256 double
0 0 0
0.0078125 0 0
0.0078125 0 0
0.015625 0 0
0.015625 0 0
0.0234375 0 0
0.0234375 0 0
0.03125 0 0
0.03125 0 0
0.0390625 0 0
0.0390625 0 0
0.046875 0 0
0.046875 0 0
0.0546875 0 0
0.0546875 0 0
0.0625 0 0
0.0625 0 0
0.0703125 0 0
0.0703125 0 0
0.078125 0 0
0.078125 0 0
0.0859375 0 0
0.0859375 0 0
0.09375 0 0
0.09375 0 0
0.101562 0 0
0.101562 0 0
0.109375 0 0
0.109375 0 0
0.117188 0 0
0.117188 0 0
0.125 0 0
0.125 0 0
0.132812 0 0
0.132812 0 0
0.140625 0 0
0.140625 0 0
0.148438 0 0
0.148438 0 0
0.15625 0 0
0.15625 0 0
0.164062 0 0
0.164062 0 0
0.171875 0 0
0.171875 0 0
0.179688 0 0
0.179688 0 0
0.1875 0 0
0.1875 0 0
0.195312 0 0
0.195312 0 0
0.203125 0 0
0.203125 0 0
0.210938 0 0
0.210938 0 0
0.21875 0 0
0.21875 0 0
0.226562 0 0
0.226562 0 0
0.234375 0 0
0.234375 0 0
0.242188 0 0
0.242188 0 0
0.25 0 0
0.25 0 0
0.257812 0 0
0.257812 0 0
0.265625 0 0
0.265625 0 0
0.273438 0 0
0.273438 0 0
0.28125 0 0
0.28125 0 0
0.289062 0 0
0.289062 0 0
0.296875 0 0
0.296875 0 0
0.304688 0 0
0.304688 0 0
0.3125 0 0
0.3125 0 0
0.320312 0 0
0.320312 0 0
0.328125 0 0
0.328125 0 0
0.335938 0 0
0.335938 0 0
0.34375 0 0
0.34375 0 0
0.351562 0 0
0.351562 0 0
0.359375 0 0
0.359375 0 0
0.367188 0 0
0.367188 0 0
0.375 0 0
0.375 0 0
0.382812 0 0
0.382812 0 0
0.390625 0 0
0.390625 0 0
0.398438 0 0
0.398438 0 0
0.40625 0 0
0.40625 0 0
0.414062 0 0
0.414062 0 0
0.421875 0 0
0.421875 0 0
0.429688 0 0
0.429688 0 0
0.4375 0 0
0.4375 0 0
0.445312 0 0
0.445312 0 0
0.453125 0 0
0.453125 0 0
0.460938 0 0
0.460938 0 0
0.46875 0 0
0.46875 0 0
0.476562 0 0
0.476562 0 0
0.484375 0 0
0.484375 0 0
0.492188 0 0
0.492188 0 0
0.5 0 0
0.5 0 0
0.507812 0 0
0.507812 0 0
0.515625 0 0
0.515625 0 0
0.523438 0 0
0.523438 0 0
0.53125 0 0
0.53125 0 0
0.539062 0 0
0.539062 0 0
0.546875 0 0
0.546875 0 0
0.554688 0 0
0.554688 0 0
0.5625 0 0
0.5625 0 0
0.570312 0 0
0.570312 0 0
0.578125 0 0
0.578125 0 0
0.585938 0 0
0.585938 0 0
0.59375 0 0
0.59375 0 0
0.601562 0 0
0.601562 0 0
0.609375 0 0
0.609375 0 0
0.617188 0 0
0.617188 0 0
0.625 0 0
0.625 0 0
0.632812 0 0
0.632812 0 0
0.640625 0 0
0.640625 0 0
0.648438 0 0
0.648438 0 0
0.65625 0 0
0.65625 0 0
0.664062 0 0
0.664062 0 0
0.671875 0 0
0.671875 0 0
0.679688 0 0
0.679688 0 0
0.6875 0 0
0.6875 0 0
0.695312 0 0
0.695312 0 0
0.703125 0 0
0.703125 0 0
0.710938 0 0
0.710938 0 0
0.71875 0 0
0.71875 0 0
0.726562 0 0
0.726562 0 0
0.734375 0 0
0.734375 0 0
0.742188 0 0
0.742188 0 0
0.75 0 0
0.75 0 0
0.757812 0 0
0.757812 0 0
0.765625 0 0
0.765625 0 0
0.773438 0 0
0.773438 0 0
0.78125 0 0
0.78125 0 0
0.789062 0 0
0.789062 0 0
0.796875 0 0
0.796875 0 0
0.804688 0 0
0.804688 0 0
0.8125 0 0
0.8125 0 0
0.820312 0 0
0.820312 0 0
0.828125 0 0
0.828125 0 0
0.835938 0 0
0.835938 0 0
0.84375 0 0
0.84375 0 0
0.851562 0 0
0.851562 0 0
0.859375 0 0
0.859375 0 0
0.867188 0 0
0.867188 0 0
0.875 0 0
0.875 0 0
0.882812 0 0
0.882812 0 0
0.890625 0 0
0.890625 0 0
0.898438 0 0
0.898438 0 0
0.90625 0 0
0.90625 0 0
0.914062 0 0
0.914062 0 0
0.921875 0 0
0.921875 0 0
0.929688 0 0
0.929688 0 0
0.9375 0 0
0.9375 0 0
0.945312 0 0
0.945312 0 0
0.953125 0 0
0.953125 0 0
0.960938 0 0
0.960938 0 0
0.96875 0 0
0.96875 0 0
0.976562 0 0
0.976562 0 0
0.984375 0 0
0.984375 0 0
0.992188 0 0
0.992188 0 0
1 0 0

CELLS 128 384
2	0	1
2	2	3
2	4	5
2	6	7
2	8	9
2	10	11
2	12	13
2	14	15
2	16	17
2	18	19
2	20	21
2	22	23
2	24	25
2	26	27
2	28	29
2	30	31
2	32	33
2	34	35
2	36	37
2	38	39
2	40	41
2	42	43
2	44	45
2	46	47
2	48	49
2	50	51
2	52	53
2	54	55
2	56	57
2	58	59
2	60	61
2	62	63
2	64	65
2	66	67
2	68	69
2	70	71
2	72	73
2	74	75
2	76	77
2	78	79
2	80	81
2	82	83
2	84	85
2	86	87
2	88	89
2	90	91
2	92	93
2	94	95
2	96	97
2	98	99
2	100	101
2	102	103
2	104	105
2	106	107
2	108	109
2	110	111
2	112	113
2	114	115
2	116	117
2	118	119
2	120	121
2	122	123
2	124	125
2	126	127
2	128	129
2	130	131
2	132	133
2	134	135
2	136	137
2	138	139
2	140	141
2	142	143
2	144	145
2	146	147
2	148	149
2	150	151
2	152	153
2	154	155
2	156	157
2	158	159
2	160	161
2	162	163
2	164	165
2	166	167
2	168	169
2	170	171
2	172	173
2	174	175
2	176	177
2	178	179
2	180	181
2	182	183
2	184	185
2	186	187
2	188	189
2	190	191
2	192	193
2	194	195
2	196	197
2	198	199
2	200	201
2	202	203
2	204	205
2	206	207
2	208	209
2	210	211
2	212	213
2	214	215
2	216	217
2	218	219
2	220	221
2	222	223
2	224	225
2	226	227
2	228	229
2	230	231
2	232	233
2	234	235
2	236	237
2	238	239
2	240	241
2	242	243
2	244	245
2	246	247
2	248	249
2	250	251
2	252	253
2	254	255

CELL_TYPES 128
 3 3 3 3 3 3 3 3 3 3 3 3 3 3 3 3 3 3 3 3 3 3 3 3 3 3 3 3 3 3 3 3 3 3 3 3 3 3 3 3 3 3 3 3 3 3 3 3 3 3 3 3 3 3 3 3 3 3 3 3 3 3 3 3 3 3 3 3 3 3 3 3 3 3 3 3 3 3 3 3 3 3 3 3 3 3 3 3 3 3 3 3 3 3 3 3 3 3 3 3 3 3 3 3 3 3 3 3 3 3 3 3 3 3 3 3 3 3 3 3 3 3 3 3 3 3 3 3
POINT_DATA 256
VECTORS displacement double
0 0 0
-0.00101905 0 0
-0.00101905 0 0
-0.00202206 0 0
-0.00202206 0 0
-0.00300902 0 0
-0.00300902 0 0
-0.00397992 0 0
-0.00397992 0 0
-0.00493479 0 0
-0.00493479 0 0
-0.0058736 0 0
-0.0058736 0 0
-0.00679637 0 0
-0.00679637 0 0
-0.00770308 0 0
-0.00770308 0 0
-0.00859376 0 0
-0.00859376 0 0
-0.00946838 0 0
-0.00946838 0 0
-0.010327 0 0
-0.010327 0 0
-0.0111695 0 0
-0.0111695 0 0
-0.011996 0 0
-0.011996 0 0
-0.0128064 0 0
-0.0128064 0 0
-0.0136008 0 0
-0.0136008 0 0
-0.0143791 0 0
-0.0143791 0 0
-0.0151414 0 0
-0.0151414 0 0
-0.0158876 0 0
-0.0158876 0 0
-0.0166178 0 0
-0.0166178 0 0
-0.017332 0 0
-0.017332 0 0
-0.0180301 0 0
-0.0180301 0 0
-0.0187121 0 0
-0.0187121 0 0
-0.0193781 0 0
-0.0193781 0 0
-0.0200281 0 0
-0.0200281 0 0
-0.020662 0 0
-0.020662 0 0
-0.0212798 0 0
-0.0212798 0 0
-0.0218816 0 0
-0.0218816 0 0
-0.0224674 0 0
-0.0224674 0 0
-0.0230371 0 0
-0.0230371 0 0
-0.0235908 0 0
-0.0235908 0 0
-0.0241284 0 0
-0.0241284 0 0
-0.02465 0 0
-0.02465 0 0
-0.0251555 0 0
-0.0251555 0 0
-0.025645 0 0
-0.025645 0 0
-0.0261184 0 0
-0.0261184 0 0
-0.0265758 0 0
-0.0265758 0 0
-0.0270171 0 0
-0.0270171 0 0
-0.0274424 0 0
-0.0274424 0 0
-0.0278516 0 0
-0.0278516 0 0
-0.0282448 0 0
-0.0282448 0 0
-0.0286219 0 0
-0.0286219 0 0
-0.028983 0 0
-0.028983 0 0
-0.029328 0 0
-0.029328 0 0
-0.029657 0 0
-0.029657 0 0
-0.02997 0 0
-0.02997 0 0
-0.0302668 0 0
-0.0302668 0 0
-0.0305477 0 0
-0.0305477 0 0
-0.0308125 0 0
-0.0308125 0 0
-0.0310612 0 0
-0.0310612 0 0
-0.0312939 0 0
-0.0312939 0 0
-0.0315106 0 0
-0.0315106 0 0
-0.0317112 0 0
-0.0317112 0 0
-0.0318957 0 0
-0.0318957 0 0
-0.0320642 0 0
-0.0320642 0 0
-0.0322167 0 0
-0.0322167 0 0
-0.0323531 0 0
-0.0323531 0 0
-0.0324735 0 0
-0.0324735 0 0
-0.0325778 0 0
-0.0325778 0 0
-0.032666 0 0
-0.032666 0 0
-0.0327382 0 0
-0.0327382 0 0
-0.0327944 0 0
-0.0327944 0 0
-0.0328345 0 0
-0.0328345 0 0
-0.0328586 0 0
-0.0328586 0 0
-0.0328666 0 0
-0.0328666 0 0
-0.0328586 0 0
-0.0328586 0 0
-0.0328345 0 0
-0.0328345 0 0
-0.0327944 0 0
-0.0327944 0 0
-0.0327382 0 0
-0.0327382 0 0
-0.032666 0 0
-0.032666 0 0
-0.0325778 0 0
-0.0325778 0 0
-0.0324735 0 0
-0.0324735 0 0
-0.0323531 0 0
-0.0323531 0 0
-0.0322167 0 0
-0.0322167 0 0
-0.0320642 0 0
-0.0320642 0 0
-0.0318957 0 0
-0.0318957 0 0
-0.0317112 0 0
-0.0317112 0 0
-0.0315106 0 0
-0.0315106 0 0
-0.0312939 0 0
-0.0312939 0 0
-0.0310612 0 0
-0.0310612 0 0
-0.0308125 0 0
-0.0308125 0 0
-0.0305477 0 0
-0.0305477 0 0
-0.0302668 0 0
-0.0302668 0 0
-0.02997 0 0
-0.02997 0 0
-0.029657 0 0
-0.029657 0 0
-0.029328 0 0
-0.029328 0 0
-0.028983 0 0
-0.028983 0 0
-0.0286219 0 0
-0.0286219 0 0
-0.0282448 0 0
-0.0282448 0 0
-0.0278516 0 0
-0.0278516 0 0
-0.0274424 0 0
-0.0274424 0 0
-0.0270171 0 0
-0.0270171 0 0
-0.0265758 0 0
-0.0265758 0 0
-0.0261184 0 0
-0.0261184 0 0
-0.025645 0 0
-0.025645 0 0
-0.0251555 0 0
-0.0251555 0 0
-0.02465 0 0
-0.02465 0 0
-0.0241284 0 0
-0.0241284 0 0
-0.0235908 0 0
-0.0235908 0 0
-0.0230371 0 0
-0.0230371 0 0
-0.0224674 0 0
-0.0224674 0 0
-0.0218816 0 0
-0.0218816 0 0
-0.0212798 0 0
-0.0212798 0 0
-0.020662 0 0
-0.020662 0 0
-0.0200281 0 0
-0.0200281 0 0
-0.0193781 0 0
-0.0193781 0 0
-0.0187121 0 0
-0.0187121 0 0
-0.0180301 0 0
-0.0180301 0 0
-0.017332 0 0
-0.017332 0 0
-0.0166178 0 0
-0.0166178 0 0
-0.0158876 0 0
-0.0158876 0 0
-0.0151414 0 0
-0.0151414 0 0
-0.0143791 0 0
-0.0143791 0 0
-0.0136008 0 0
-0.0136008 0 0
-0.0128064 0 0
-0.0128064 0 0
-0.011996 0 0
-0.011996 0 0
-0.0111695 0 0
-0.0111695 0 0
-0.010327 0 0
-0.010327 0 0
-0.00946838 0 0
-0.00946838 0 0
-0.00859376 0 0
-0.00859376 0 0
-0.00770308 0 0
-0.00770308 0 0
-0.00679637 0 0
-0.00679637 0 0
-0.0058736 0 0
-0.0058736 0 0
-0.00493479 0 0
-0.00493479 0 0
-0.00397992 0 0
-0.00397992 0 0
-0.00300902 0 0
-0.00300902 0 0
-0.00202206 0 0
-0.00202206 0 0
-0.00101905 0 0
-0.00101905 0 0
0 0 0
VECTORS velocity double
0 0 0
-0.00768406 0 0
-0.00768406 0 0
-0.0152471 0 0
-0.0152471 0 0
-0.0226892 0 0
-0.0226892 0 0
-0.0300102 0 0
-0.0300102 0 0
-0.0372103 0 0
-0.0372103 0 0
-0.0442893 0 0
-0.0442893 0 0
-0.0512473 0 0
-0.0512473 0 0
-0.0580843 0 0
-0.0580843 0 0
-0.0648003 0 0
-0.0648003 0 0
-0.0713953 0 0
-0.0713953 0 0
-0.0778692 0 0
-0.0778692 0 0
-0.0842222 0 0
-0.0842222 0 0
-0.0904541 0 0
-0.0904541 0 0
-0.0965651 0 0
-0.0965651 0 0
-0.102555 0 0
-0.102555 0 0
-0.108424 0 0
-0.108424 0 0
-0.114172 0 0
-0.114172 0 0
-0.119799 0 0
-0.119799 0 0
-0.125305 0 0
-0.125305 0 0
-0.130689 0 0
-0.130689 0 0
-0.135953 0 0
-0.135953 0 0
-0.141096 0 0
-0.141096 0 0
-0.146118 0 0
-0.146118 0 0
-0.151019 0 0
-0.151019 0 0
-0.155799 0 0
-0.155799 0 0
-0.160457 0 0
-0.160457 0 0
-0.164995 0 0
-0.164995 0 0
-0.169412 0 0
-0.169412 0 0
-0.173708 0 0
-0.173708 0 0
-0.177883 0 0
-0.177883 0 0
-0.181936 0 0
-0.181936 0 0
-0.185869 0 0
-0.185869 0 0
-0.189681 0 0
-0.189681 0 0
-0.193372 0 0
-0.193372 0 0
-0.196941 0 0
-0.196941 0 0
-0.20039 0 0
-0.20039 0 0
-0.203718 0 0
-0.203718 0 0
-0.206925 0 0
-0.206925 0 0
-0.21001 0 0
-0.21001 0 0
-0.212975 0 0
-0.212975 0 0
-0.215819 0 0
-0.215819 0 0
-0.218541 0 0
-0.218541 0 0
-0.221143 0 0
-0.221143 0 0
-0.223624 0 0
-0.223624 0 0
-0.225983 0 0
-0.225983 0 0
-0.228222 0 0
-0.228222 0 0
-0.23034 0 0
-0.23034 0 0
-0.232336 0 0
-0.232336 0 0
-0.234212 0 0
-0.234212 0 0
-0.235967 0 0
-0.235967 0 0
-0.2376 0 0
-0.2376 0 0
-0.239113 0 0
-0.239113 0 0
-0.240505 0 0
-0.240505 0 0
-0.241775 0 0
-0.241775 0 0
-0.242925 0 0
-0.242925 0 0
-0.243953 0 0
-0.243953 0 0
-0.244861 0 0
-0.244861 0 0
-0.245647 0 0
-0.245647 0 0
-0.246313 0 0
-0.246313 0 0
-0.246858 0 0
-0.246858 0 0
-0.247281 0 0
-0.247281 0 0
-0.247584 0 0
-0.247584 0 0
-0.247765 0 0
-0.247765 0 0
-0.247826 0 0
-0.247826 0 0
-0.247765 0 0
-0.247765 0 0
-0.247584 0 0
-0.247584 0 0
-0.247281 0 0
-0.247281 0 0
-0.246858 0 0
-0.246858 0 0
-0.246313 0 0
-0.246313 0 0
-0.245647 0 0
-0.245647 0 0
-0.244861 0 0
-0.244861 0 0
-0.243953 0 0
-0.243953 0 0
-0.242925 0 0
-0.242925 0 0
-0.241775 0 0
-0.241775 0 0
-0.240505 0 0
-0.240505 0 0
-0.239113 0 0
-0.239113 0 0
-0.2376 0 0
-0.2376 0 0
-0.235967 0 0
-0.235967 0 0
-0.234212 0 0
-0.234212 0 0
-0.232336 0 0
-0.232336 0 0
-0.23034 0 0
-0.23034 0 0
-0.228222 0 0
-0.228222 0 0
-0.225983 0 0
-0.225983 0 0
-0.223624 0 0
-0.223624 0 0
-0.221143 0 0
-0.221143 0 0
-0.218541 0 0
-0.218541 0 0
-0.215819 0 0
-0.215819 0 0
-0.212975 0 0
-0.212975 0 0
-0.21001 0 0
-0.21001 0 0
-0.206925 0 0
-0.206925 0 0
-0.203718 0 0
-0.203718 0 0
-0.20039 0 0
-0.20039 0 0
-0.196941 0 0
-0.196941 0 0
-0.193372 0 0
-0.193372 0 0
-0.189681 0 0
-0.189681 0 0
-0.185869 0 0
-0.185869 0 0
-0.181936 0 0
-0.181936 0 0
-0.177883 0 0
-0.177883 0 0
-0.173708 0 0
-0.173708 0 0
-0.169412 0 0
-0.169412 0 0
-0.164995 0 0
-0.164995 0 0
-0.160457 0 0
-0.160457 0 0
-0.155799 0 0
-0.155799 0 0
-0.151019 0 0
-0.151019 0 0
-0.146118 0 0
-0.146118 0 0
-0.141096 0 0
-0.141096 0 0
-0.135953 0 0
-0.135953 0 0
-0.130689 0 0
-0.130689 0 0
-0.125305 0 0
-0.125305 0 0
-0.119799 0 0
-0.119799 0 0
-0.114172 0 0
-0.114172 0 0
-0.108424 0 0
-0.108424 0 0
-0.102555 0 0
-0.102555 0 0
-0.0965651 0 0
-0.0965651 0 0
-0.0904541 0 0
-0.0904541 0 0
-0.0842222 0 0
-0.0842222 0 0
-0.0778692 0 0
-0.0778692 0 0
-0.0713953 0 0
-0.0713953 0 0
-0.0648003 0 0
-0.0648003 0 0
-0.0580843 0 0
-0.0580843 0 0
-0.0512473 0 0
-0.0512473 0 0
-0.0442893 0 0
-0.0442893 0 0
-0.0372103 0 0
-0.0372103 0 0
-0.0300102 0 0
-0.0300102 0 0
-0.0226892 0 0
-0.0226892 0 0
-0.0152471 0 0
-0.0152471 0 0
-0.00768406 0 0
-0.00768406 0 0
0 0 0
