# vtk DataFile Version 3.0
#This file was generated by the deal.II library on 2025/3/27 at 12:23:55
ASCII
DATASET UNSTRUCTURED_GRID

FIELD FieldData 1
TIME 1 1 double
1.56641
POINTS 64 double
0 0 0
0.03125 0 0
0.03125 0 0
0.0625 0 0
0.0625 0 0
0.09375 0 0
0.09375 0 0
0.125 0 0
0.125 0 0
0.15625 0 0
0.15625 0 0
0.1875 0 0
0.1875 0 0
0.21875 0 0
0.21875 0 0
0.25 0 0
0.25 0 0
0.28125 0 0
0.28125 0 0
0.3125 0 0
0.3125 0 0
0.34375 0 0
0.34375 0 0
0.375 0 0
0.375 0 0
0.40625 0 0
0.40625 0 0
0.4375 0 0
0.4375 0 0
0.46875 0 0
0.46875 0 0
0.5 0 0
0.5 0 0
0.53125 0 0
0.53125 0 0
0.5625 0 0
0.5625 0 0
0.59375 0 0
0.59375 0 0
0.625 0 0
0.625 0 0
0.65625 0 0
0.65625 0 0
0.6875 0 0
0.6875 0 0
0.71875 0 0
0.71875 0 0
0.75 0 0
0.75 0 0
0.78125 0 0
0.78125 0 0
0.8125 0 0
0.8125 0 0
0.84375 0 0
0.84375 0 0
0.875 0 0
0.875 0 0
0.90625 0 0
0.90625 0 0
0.9375 0 0
0.9375 0 0
0.96875 0 0
0.96875 0 0
1 0 0

CELLS 32 96
2	0	1
2	2	3
2	4	5
2	6	7
2	8	9
2	10	11
2	12	13
2	14	15
2	16	17
2	18	19
2	20	21
2	22	23
2	24	25
2	26	27
2	28	29
2	30	31
2	32	33
2	34	35
2	36	37
2	38	39
2	40	41
2	42	43
2	44	45
2	46	47
2	48	49
2	50	51
2	52	53
2	54	55
2	56	57
2	58	59
2	60	61
2	62	63

CELL_TYPES 32
 3 3 3 3 3 3 3 3 3 3 3 3 3 3 3 3 3 3 3 3 3 3 3 3 3 3 3 3 3 3 3 3
POINT_DATA 64
VECTORS displacement double
0 0 0
0.0980049 0 0
0.0980049 0 0
0.195066 0 0
0.195066 0 0
0.290248 0 0
0.290248 0 0
0.382636 0 0
0.382636 0 0
0.471338 0 0
0.471338 0 0
0.555501 0 0
0.555501 0 0
0.634314 0 0
0.634314 0 0
0.707018 0 0
0.707018 0 0
0.772914 0 0
0.772914 0 0
0.831366 0 0
0.831366 0 0
0.881811 0 0
0.881811 0 0
0.923764 0 0
0.923764 0 0
0.956821 0 0
0.956821 0 0
0.980663 0 0
0.980663 0 0
0.99506 0 0
0.99506 0 0
0.999875 0 0
0.999875 0 0
0.99506 0 0
0.99506 0 0
0.980663 0 0
0.980663 0 0
0.956821 0 0
0.956821 0 0
0.923764 0 0
0.923764 0 0
0.881811 0 0
0.881811 0 0
0.831366 0 0
0.831366 0 0
0.772914 0 0
0.772914 0 0
0.707018 0 0
0.707018 0 0
0.634314 0 0
0.634314 0 0
0.555501 0 0
0.555501 0 0
0.471338 0 0
0.471338 0 0
0.382636 0 0
0.382636 0 0
0.290248 0 0
0.290248 0 0
0.195066 0 0
0.195066 0 0
0.0980049 0 0
0.0980049 0 0
0 0 0
VECTORS velocity double
0 0 0
0.000432493 0 0
0.000432493 0 0
0.00086082 0 0
0.00086082 0 0
0.00128086 0 0
0.00128086 0 0
0.00168856 0 0
0.00168856 0 0
0.00208 0 0
0.00208 0 0
0.00245141 0 0
0.00245141 0 0
0.00279921 0 0
0.00279921 0 0
0.00312005 0 0
0.00312005 0 0
0.00341084 0 0
0.00341084 0 0
0.00366879 0 0
0.00366879 0 0
0.0038914 0 0
0.0038914 0 0
0.00407654 0 0
0.00407654 0 0
0.00422242 0 0
0.00422242 0 0
0.00432763 0 0
0.00432763 0 0
0.00439117 0 0
0.00439117 0 0
0.00441242 0 0
0.00441242 0 0
0.00439117 0 0
0.00439117 0 0
0.00432763 0 0
0.00432763 0 0
0.00422242 0 0
0.00422242 0 0
0.00407654 0 0
0.00407654 0 0
0.0038914 0 0
0.0038914 0 0
0.00366879 0 0
0.00366879 0 0
0.00341084 0 0
0.00341084 0 0
0.00312005 0 0
0.00312005 0 0
0.00279921 0 0
0.00279921 0 0
0.00245141 0 0
0.00245141 0 0
0.00208 0 0
0.00208 0 0
0.00168856 0 0
0.00168856 0 0
0.00128086 0 0
0.00128086 0 0
0.00086082 0 0
0.00086082 0 0
0.000432493 0 0
0.000432493 0 0
0 0 0
