# vtk DataFile Version 3.0
#This file was generated by the deal.II library on 2025/3/27 at 12:23:55
ASCII
DATASET UNSTRUCTURED_GRID

FIELD FieldData 1
TIME 1 1 double
0.558594
POINTS 64 double
0 0 0
0.03125 0 0
0.03125 0 0
0.0625 0 0
0.0625 0 0
0.09375 0 0
0.09375 0 0
0.125 0 0
0.125 0 0
0.15625 0 0
0.15625 0 0
0.1875 0 0
0.1875 0 0
0.21875 0 0
0.21875 0 0
0.25 0 0
0.25 0 0
0.28125 0 0
0.28125 0 0
0.3125 0 0
0.3125 0 0
0.34375 0 0
0.34375 0 0
0.375 0 0
0.375 0 0
0.40625 0 0
0.40625 0 0
0.4375 0 0
0.4375 0 0
0.46875 0 0
0.46875 0 0
0.5 0 0
0.5 0 0
0.53125 0 0
0.53125 0 0
0.5625 0 0
0.5625 0 0
0.59375 0 0
0.59375 0 0
0.625 0 0
0.625 0 0
0.65625 0 0
0.65625 0 0
0.6875 0 0
0.6875 0 0
0.71875 0 0
0.71875 0 0
0.75 0 0
0.75 0 0
0.78125 0 0
0.78125 0 0
0.8125 0 0
0.8125 0 0
0.84375 0 0
0.84375 0 0
0.875 0 0
0.875 0 0
0.90625 0 0
0.90625 0 0
0.9375 0 0
0.9375 0 0
0.96875 0 0
0.96875 0 0
1 0 0

CELLS 32 96
2	0	1
2	2	3
2	4	5
2	6	7
2	8	9
2	10	11
2	12	13
2	14	15
2	16	17
2	18	19
2	20	21
2	22	23
2	24	25
2	26	27
2	28	29
2	30	31
2	32	33
2	34	35
2	36	37
2	38	39
2	40	41
2	42	43
2	44	45
2	46	47
2	48	49
2	50	51
2	52	53
2	54	55
2	56	57
2	58	59
2	60	61
2	62	63

CELL_TYPES 32
 3 3 3 3 3 3 3 3 3 3 3 3 3 3 3 3 3 3 3 3 3 3 3 3 3 3 3 3 3 3 3 3
POINT_DATA 64
VECTORS displacement double
0 0 0
0.0519466 0 0
0.0519466 0 0
0.103393 0 0
0.103393 0 0
0.153844 0 0
0.153844 0 0
0.202813 0 0
0.202813 0 0
0.249828 0 0
0.249828 0 0
0.294438 0 0
0.294438 0 0
0.336213 0 0
0.336213 0 0
0.374749 0 0
0.374749 0 0
0.409676 0 0
0.409676 0 0
0.440658 0 0
0.440658 0 0
0.467396 0 0
0.467396 0 0
0.489633 0 0
0.489633 0 0
0.507154 0 0
0.507154 0 0
0.519792 0 0
0.519792 0 0
0.527423 0 0
0.527423 0 0
0.529975 0 0
0.529975 0 0
0.527423 0 0
0.527423 0 0
0.519792 0 0
0.519792 0 0
0.507154 0 0
0.507154 0 0
0.489633 0 0
0.489633 0 0
0.467396 0 0
0.467396 0 0
0.440658 0 0
0.440658 0 0
0.409676 0 0
0.409676 0 0
0.374749 0 0
0.374749 0 0
0.336213 0 0
0.336213 0 0
0.294438 0 0
0.294438 0 0
0.249828 0 0
0.249828 0 0
0.202813 0 0
0.202813 0 0
0.153844 0 0
0.153844 0 0
0.103393 0 0
0.103393 0 0
0.0519466 0 0
0.0519466 0 0
0 0 0
VECTORS velocity double
0 0 0
0.0831094 0 0
0.0831094 0 0
0.165418 0 0
0.165418 0 0
0.246134 0 0
0.246134 0 0
0.32448 0 0
0.32448 0 0
0.3997 0 0
0.3997 0 0
0.471072 0 0
0.471072 0 0
0.537906 0 0
0.537906 0 0
0.599561 0 0
0.599561 0 0
0.655441 0 0
0.655441 0 0
0.705009 0 0
0.705009 0 0
0.747787 0 0
0.747787 0 0
0.783364 0 0
0.783364 0 0
0.811396 0 0
0.811396 0 0
0.831614 0 0
0.831614 0 0
0.843824 0 0
0.843824 0 0
0.847907 0 0
0.847907 0 0
0.843824 0 0
0.843824 0 0
0.831614 0 0
0.831614 0 0
0.811396 0 0
0.811396 0 0
0.783364 0 0
0.783364 0 0
0.747787 0 0
0.747787 0 0
0.705009 0 0
0.705009 0 0
0.655441 0 0
0.655441 0 0
0.599561 0 0
0.599561 0 0
0.537906 0 0
0.537906 0 0
0.471072 0 0
0.471072 0 0
0.3997 0 0
0.3997 0 0
0.32448 0 0
0.32448 0 0
0.246134 0 0
0.246134 0 0
0.165418 0 0
0.165418 0 0
0.0831094 0 0
0.0831094 0 0
0 0 0
