# vtk DataFile Version 3.0
#This file was generated by the deal.II library on 2025/4/1 at 13:00:01
ASCII
DATASET UNSTRUCTURED_GRID

FIELD FieldData 1
TIME 1 1 double
1.98441
POINTS 64 double
0 0 0
0.03125 0 0
0.03125 0 0
0.0625 0 0
0.0625 0 0
0.09375 0 0
0.09375 0 0
0.125 0 0
0.125 0 0
0.15625 0 0
0.15625 0 0
0.1875 0 0
0.1875 0 0
0.21875 0 0
0.21875 0 0
0.25 0 0
0.25 0 0
0.28125 0 0
0.28125 0 0
0.3125 0 0
0.3125 0 0
0.34375 0 0
0.34375 0 0
0.375 0 0
0.375 0 0
0.40625 0 0
0.40625 0 0
0.4375 0 0
0.4375 0 0
0.46875 0 0
0.46875 0 0
0.5 0 0
0.5 0 0
0.53125 0 0
0.53125 0 0
0.5625 0 0
0.5625 0 0
0.59375 0 0
0.59375 0 0
0.625 0 0
0.625 0 0
0.65625 0 0
0.65625 0 0
0.6875 0 0
0.6875 0 0
0.71875 0 0
0.71875 0 0
0.75 0 0
0.75 0 0
0.78125 0 0
0.78125 0 0
0.8125 0 0
0.8125 0 0
0.84375 0 0
0.84375 0 0
0.875 0 0
0.875 0 0
0.90625 0 0
0.90625 0 0
0.9375 0 0
0.9375 0 0
0.96875 0 0
0.96875 0 0
1 0 0

CELLS 32 96
2	0	1
2	2	3
2	4	5
2	6	7
2	8	9
2	10	11
2	12	13
2	14	15
2	16	17
2	18	19
2	20	21
2	22	23
2	24	25
2	26	27
2	28	29
2	30	31
2	32	33
2	34	35
2	36	37
2	38	39
2	40	41
2	42	43
2	44	45
2	46	47
2	48	49
2	50	51
2	52	53
2	54	55
2	56	57
2	58	59
2	60	61
2	62	63

CELL_TYPES 32
 3 3 3 3 3 3 3 3 3 3 3 3 3 3 3 3 3 3 3 3 3 3 3 3 3 3 3 3 3 3 3 3
POINT_DATA 64
VECTORS displacement double
0 0 0
0.027845 0 0
0.027845 0 0
0.0538998 0 0
0.0538998 0 0
0.0781629 0 0
0.0781629 0 0
0.100633 0 0
0.100633 0 0
0.121308 0 0
0.121308 0 0
0.140187 0 0
0.140187 0 0
0.15727 0 0
0.15727 0 0
0.172556 0 0
0.172556 0 0
0.186044 0 0
0.186044 0 0
0.197735 0 0
0.197735 0 0
0.207627 0 0
0.207627 0 0
0.215721 0 0
0.215721 0 0
0.222016 0 0
0.222016 0 0
0.226513 0 0
0.226513 0 0
0.229211 0 0
0.229211 0 0
0.23011 0 0
0.23011 0 0
0.229211 0 0
0.229211 0 0
0.226513 0 0
0.226513 0 0
0.222016 0 0
0.222016 0 0
0.215721 0 0
0.215721 0 0
0.207627 0 0
0.207627 0 0
0.197735 0 0
0.197735 0 0
0.186044 0 0
0.186044 0 0
0.172556 0 0
0.172556 0 0
0.15727 0 0
0.15727 0 0
0.140187 0 0
0.140187 0 0
0.121308 0 0
0.121308 0 0
0.100633 0 0
0.100633 0 0
0.0781629 0 0
0.0781629 0 0
0.0538998 0 0
0.0538998 0 0
0.027845 0 0
0.027845 0 0
0 0 0
VECTORS velocity double
0 0 0
-0.0120175 0 0
-0.0120175 0 0
-0.0232577 0 0
-0.0232577 0 0
-0.0337214 0 0
-0.0337214 0 0
-0.0434092 0 0
-0.0434092 0 0
-0.0523218 0 0
-0.0523218 0 0
-0.0604595 0 0
-0.0604595 0 0
-0.0678227 0 0
-0.0678227 0 0
-0.0744114 0 0
-0.0744114 0 0
-0.0802255 0 0
-0.0802255 0 0
-0.0852649 0 0
-0.0852649 0 0
-0.0895294 0 0
-0.0895294 0 0
-0.0930187 0 0
-0.0930187 0 0
-0.0957327 0 0
-0.0957327 0 0
-0.0976713 0 0
-0.0976713 0 0
-0.0988345 0 0
-0.0988345 0 0
-0.0992222 0 0
-0.0992222 0 0
-0.0988345 0 0
-0.0988345 0 0
-0.0976713 0 0
-0.0976713 0 0
-0.0957327 0 0
-0.0957327 0 0
-0.0930187 0 0
-0.0930187 0 0
-0.0895294 0 0
-0.0895294 0 0
-0.0852649 0 0
-0.0852649 0 0
-0.0802255 0 0
-0.0802255 0 0
-0.0744114 0 0
-0.0744114 0 0
-0.0678227 0 0
-0.0678227 0 0
-0.0604595 0 0
-0.0604595 0 0
-0.0523218 0 0
-0.0523218 0 0
-0.0434092 0 0
-0.0434092 0 0
-0.0337214 0 0
-0.0337214 0 0
-0.0232577 0 0
-0.0232577 0 0
-0.0120175 0 0
-0.0120175 0 0
0 0 0
