# vtk DataFile Version 3.0
#This file was generated by the deal.II library on 2025/4/1 at 13:00:08
ASCII
DATASET UNSTRUCTURED_GRID

FIELD FieldData 1
TIME 1 1 double
3.20858
POINTS 64 double
0 0 0
0.03125 0 0
0.03125 0 0
0.0625 0 0
0.0625 0 0
0.09375 0 0
0.09375 0 0
0.125 0 0
0.125 0 0
0.15625 0 0
0.15625 0 0
0.1875 0 0
0.1875 0 0
0.21875 0 0
0.21875 0 0
0.25 0 0
0.25 0 0
0.28125 0 0
0.28125 0 0
0.3125 0 0
0.3125 0 0
0.34375 0 0
0.34375 0 0
0.375 0 0
0.375 0 0
0.40625 0 0
0.40625 0 0
0.4375 0 0
0.4375 0 0
0.46875 0 0
0.46875 0 0
0.5 0 0
0.5 0 0
0.53125 0 0
0.53125 0 0
0.5625 0 0
0.5625 0 0
0.59375 0 0
0.59375 0 0
0.625 0 0
0.625 0 0
0.65625 0 0
0.65625 0 0
0.6875 0 0
0.6875 0 0
0.71875 0 0
0.71875 0 0
0.75 0 0
0.75 0 0
0.78125 0 0
0.78125 0 0
0.8125 0 0
0.8125 0 0
0.84375 0 0
0.84375 0 0
0.875 0 0
0.875 0 0
0.90625 0 0
0.90625 0 0
0.9375 0 0
0.9375 0 0
0.96875 0 0
0.96875 0 0
1 0 0

CELLS 32 96
2	0	1
2	2	3
2	4	5
2	6	7
2	8	9
2	10	11
2	12	13
2	14	15
2	16	17
2	18	19
2	20	21
2	22	23
2	24	25
2	26	27
2	28	29
2	30	31
2	32	33
2	34	35
2	36	37
2	38	39
2	40	41
2	42	43
2	44	45
2	46	47
2	48	49
2	50	51
2	52	53
2	54	55
2	56	57
2	58	59
2	60	61
2	62	63

CELL_TYPES 32
 3 3 3 3 3 3 3 3 3 3 3 3 3 3 3 3 3 3 3 3 3 3 3 3 3 3 3 3 3 3 3 3
POINT_DATA 64
VECTORS displacement double
0 0 0
-0.00208617 0 0
-0.00208617 0 0
-0.00404123 0 0
-0.00404123 0 0
-0.00586478 0 0
-0.00586478 0 0
-0.00755638 0 0
-0.00755638 0 0
-0.00911553 0 0
-0.00911553 0 0
-0.0105417 0 0
-0.0105417 0 0
-0.0118343 0 0
-0.0118343 0 0
-0.0129929 0 0
-0.0129929 0 0
-0.0140167 0 0
-0.0140167 0 0
-0.0149052 0 0
-0.0149052 0 0
-0.015658 0 0
-0.015658 0 0
-0.0162746 0 0
-0.0162746 0 0
-0.0167546 0 0
-0.0167546 0 0
-0.0170976 0 0
-0.0170976 0 0
-0.0173035 0 0
-0.0173035 0 0
-0.0173722 0 0
-0.0173722 0 0
-0.0173035 0 0
-0.0173035 0 0
-0.0170976 0 0
-0.0170976 0 0
-0.0167546 0 0
-0.0167546 0 0
-0.0162746 0 0
-0.0162746 0 0
-0.015658 0 0
-0.015658 0 0
-0.0149052 0 0
-0.0149052 0 0
-0.0140167 0 0
-0.0140167 0 0
-0.0129929 0 0
-0.0129929 0 0
-0.0118343 0 0
-0.0118343 0 0
-0.0105417 0 0
-0.0105417 0 0
-0.00911553 0 0
-0.00911553 0 0
-0.00755638 0 0
-0.00755638 0 0
-0.00586478 0 0
-0.00586478 0 0
-0.00404123 0 0
-0.00404123 0 0
-0.00208617 0 0
-0.00208617 0 0
0 0 0
VECTORS velocity double
0 0 0
-0.0299768 0 0
-0.0299768 0 0
-0.0580088 0 0
-0.0580088 0 0
-0.0841001 0 0
-0.0841001 0 0
-0.108255 0 0
-0.108255 0 0
-0.130475 0 0
-0.130475 0 0
-0.150765 0 0
-0.150765 0 0
-0.169126 0 0
-0.169126 0 0
-0.185558 0 0
-0.185558 0 0
-0.200063 0 0
-0.200063 0 0
-0.212638 0 0
-0.212638 0 0
-0.223284 0 0
-0.223284 0 0
-0.231998 0 0
-0.231998 0 0
-0.238778 0 0
-0.238778 0 0
-0.243622 0 0
-0.243622 0 0
-0.24653 0 0
-0.24653 0 0
-0.247499 0 0
-0.247499 0 0
-0.24653 0 0
-0.24653 0 0
-0.243622 0 0
-0.243622 0 0
-0.238778 0 0
-0.238778 0 0
-0.231998 0 0
-0.231998 0 0
-0.223284 0 0
-0.223284 0 0
-0.212638 0 0
-0.212638 0 0
-0.200063 0 0
-0.200063 0 0
-0.185558 0 0
-0.185558 0 0
-0.169126 0 0
-0.169126 0 0
-0.150765 0 0
-0.150765 0 0
-0.130475 0 0
-0.130475 0 0
-0.108255 0 0
-0.108255 0 0
-0.0841001 0 0
-0.0841001 0 0
-0.0580088 0 0
-0.0580088 0 0
-0.0299768 0 0
-0.0299768 0 0
0 0 0
