# vtk DataFile Version 3.0
#This file was generated by the deal.II library on 2025/3/27 at 12:22:22
ASCII
DATASET UNSTRUCTURED_GRID

FIELD FieldData 1
TIME 1 1 double
0.304688
POINTS 64 double
0 0 0
0.03125 0 0
0.03125 0 0
0.0625 0 0
0.0625 0 0
0.09375 0 0
0.09375 0 0
0.125 0 0
0.125 0 0
0.15625 0 0
0.15625 0 0
0.1875 0 0
0.1875 0 0
0.21875 0 0
0.21875 0 0
0.25 0 0
0.25 0 0
0.28125 0 0
0.28125 0 0
0.3125 0 0
0.3125 0 0
0.34375 0 0
0.34375 0 0
0.375 0 0
0.375 0 0
0.40625 0 0
0.40625 0 0
0.4375 0 0
0.4375 0 0
0.46875 0 0
0.46875 0 0
0.5 0 0
0.5 0 0
0.53125 0 0
0.53125 0 0
0.5625 0 0
0.5625 0 0
0.59375 0 0
0.59375 0 0
0.625 0 0
0.625 0 0
0.65625 0 0
0.65625 0 0
0.6875 0 0
0.6875 0 0
0.71875 0 0
0.71875 0 0
0.75 0 0
0.75 0 0
0.78125 0 0
0.78125 0 0
0.8125 0 0
0.8125 0 0
0.84375 0 0
0.84375 0 0
0.875 0 0
0.875 0 0
0.90625 0 0
0.90625 0 0
0.9375 0 0
0.9375 0 0
0.96875 0 0
0.96875 0 0
1 0 0

CELLS 32 96
2	0	1
2	2	3
2	4	5
2	6	7
2	8	9
2	10	11
2	12	13
2	14	15
2	16	17
2	18	19
2	20	21
2	22	23
2	24	25
2	26	27
2	28	29
2	30	31
2	32	33
2	34	35
2	36	37
2	38	39
2	40	41
2	42	43
2	44	45
2	46	47
2	48	49
2	50	51
2	52	53
2	54	55
2	56	57
2	58	59
2	60	61
2	62	63

CELL_TYPES 32
 3 3 3 3 3 3 3 3 3 3 3 3 3 3 3 3 3 3 3 3 3 3 3 3 3 3 3 3 3 3 3 3
POINT_DATA 64
VECTORS displacement double
0 0 0
0.0294046 0 0
0.0294046 0 0
0.058526 0 0
0.058526 0 0
0.0870838 0 0
0.0870838 0 0
0.114803 0 0
0.114803 0 0
0.141416 0 0
0.141416 0 0
0.166668 0 0
0.166668 0 0
0.190315 0 0
0.190315 0 0
0.212128 0 0
0.212128 0 0
0.231899 0 0
0.231899 0 0
0.249436 0 0
0.249436 0 0
0.264572 0 0
0.264572 0 0
0.277159 0 0
0.277159 0 0
0.287077 0 0
0.287077 0 0
0.29423 0 0
0.29423 0 0
0.29855 0 0
0.29855 0 0
0.299995 0 0
0.299995 0 0
0.29855 0 0
0.29855 0 0
0.29423 0 0
0.29423 0 0
0.287077 0 0
0.287077 0 0
0.277159 0 0
0.277159 0 0
0.264572 0 0
0.264572 0 0
0.249436 0 0
0.249436 0 0
0.231899 0 0
0.231899 0 0
0.212128 0 0
0.212128 0 0
0.190315 0 0
0.190315 0 0
0.166668 0 0
0.166668 0 0
0.141416 0 0
0.141416 0 0
0.114803 0 0
0.114803 0 0
0.0870838 0 0
0.0870838 0 0
0.058526 0 0
0.058526 0 0
0.0294046 0 0
0.0294046 0 0
0 0 0
VECTORS velocity double
0 0 0
0.0934976 0 0
0.0934976 0 0
0.186095 0 0
0.186095 0 0
0.2769 0 0
0.2769 0 0
0.365038 0 0
0.365038 0 0
0.449661 0 0
0.449661 0 0
0.529953 0 0
0.529953 0 0
0.605142 0 0
0.605142 0 0
0.674502 0 0
0.674502 0 0
0.737367 0 0
0.737367 0 0
0.793131 0 0
0.793131 0 0
0.841256 0 0
0.841256 0 0
0.88128 0 0
0.88128 0 0
0.912816 0 0
0.912816 0 0
0.935562 0 0
0.935562 0 0
0.949297 0 0
0.949297 0 0
0.95389 0 0
0.95389 0 0
0.949297 0 0
0.949297 0 0
0.935562 0 0
0.935562 0 0
0.912816 0 0
0.912816 0 0
0.88128 0 0
0.88128 0 0
0.841256 0 0
0.841256 0 0
0.793131 0 0
0.793131 0 0
0.737367 0 0
0.737367 0 0
0.674502 0 0
0.674502 0 0
0.605142 0 0
0.605142 0 0
0.529953 0 0
0.529953 0 0
0.449661 0 0
0.449661 0 0
0.365038 0 0
0.365038 0 0
0.2769 0 0
0.2769 0 0
0.186095 0 0
0.186095 0 0
0.0934976 0 0
0.0934976 0 0
0 0 0
