# vtk DataFile Version 3.0
#This file was generated by the deal.II library on 2025/4/1 at 12:53:11
ASCII
DATASET UNSTRUCTURED_GRID

FIELD FieldData 1
TIME 1 1 double
2.48438
POINTS 64 double
0 0 0
0.03125 0 0
0.03125 0 0
0.0625 0 0
0.0625 0 0
0.09375 0 0
0.09375 0 0
0.125 0 0
0.125 0 0
0.15625 0 0
0.15625 0 0
0.1875 0 0
0.1875 0 0
0.21875 0 0
0.21875 0 0
0.25 0 0
0.25 0 0
0.28125 0 0
0.28125 0 0
0.3125 0 0
0.3125 0 0
0.34375 0 0
0.34375 0 0
0.375 0 0
0.375 0 0
0.40625 0 0
0.40625 0 0
0.4375 0 0
0.4375 0 0
0.46875 0 0
0.46875 0 0
0.5 0 0
0.5 0 0
0.53125 0 0
0.53125 0 0
0.5625 0 0
0.5625 0 0
0.59375 0 0
0.59375 0 0
0.625 0 0
0.625 0 0
0.65625 0 0
0.65625 0 0
0.6875 0 0
0.6875 0 0
0.71875 0 0
0.71875 0 0
0.75 0 0
0.75 0 0
0.78125 0 0
0.78125 0 0
0.8125 0 0
0.8125 0 0
0.84375 0 0
0.84375 0 0
0.875 0 0
0.875 0 0
0.90625 0 0
0.90625 0 0
0.9375 0 0
0.9375 0 0
0.96875 0 0
0.96875 0 0
1 0 0

CELLS 32 96
2	0	1
2	2	3
2	4	5
2	6	7
2	8	9
2	10	11
2	12	13
2	14	15
2	16	17
2	18	19
2	20	21
2	22	23
2	24	25
2	26	27
2	28	29
2	30	31
2	32	33
2	34	35
2	36	37
2	38	39
2	40	41
2	42	43
2	44	45
2	46	47
2	48	49
2	50	51
2	52	53
2	54	55
2	56	57
2	58	59
2	60	61
2	62	63

CELL_TYPES 32
 3 3 3 3 3 3 3 3 3 3 3 3 3 3 3 3 3 3 3 3 3 3 3 3 3 3 3 3 3 3 3 3
POINT_DATA 64
VECTORS displacement double
0 0 0
0.0184936 0 0
0.0184936 0 0
0.0357941 0 0
0.0357941 0 0
0.0519015 0 0
0.0519015 0 0
0.0668158 0 0
0.0668158 0 0
0.0805369 0 0
0.0805369 0 0
0.093065 0 0
0.093065 0 0
0.1044 0 0
0.1044 0 0
0.114542 0 0
0.114542 0 0
0.12349 0 0
0.12349 0 0
0.131246 0 0
0.131246 0 0
0.137808 0 0
0.137808 0 0
0.143177 0 0
0.143177 0 0
0.147353 0 0
0.147353 0 0
0.150336 0 0
0.150336 0 0
0.152126 0 0
0.152126 0 0
0.152723 0 0
0.152723 0 0
0.152126 0 0
0.152126 0 0
0.150336 0 0
0.150336 0 0
0.147353 0 0
0.147353 0 0
0.143177 0 0
0.143177 0 0
0.137808 0 0
0.137808 0 0
0.131246 0 0
0.131246 0 0
0.12349 0 0
0.12349 0 0
0.114542 0 0
0.114542 0 0
0.1044 0 0
0.1044 0 0
0.093065 0 0
0.093065 0 0
0.0805369 0 0
0.0805369 0 0
0.0668158 0 0
0.0668158 0 0
0.0519015 0 0
0.0519015 0 0
0.0357941 0 0
0.0357941 0 0
0.0184936 0 0
0.0184936 0 0
0 0 0
VECTORS velocity double
0 0 0
-0.0239659 0 0
-0.0239659 0 0
-0.0463856 0 0
-0.0463856 0 0
-0.0672591 0 0
-0.0672591 0 0
-0.0865863 0 0
-0.0865863 0 0
-0.104367 0 0
-0.104367 0 0
-0.120602 0 0
-0.120602 0 0
-0.135291 0 0
-0.135291 0 0
-0.148433 0 0
-0.148433 0 0
-0.16003 0 0
-0.16003 0 0
-0.17008 0 0
-0.17008 0 0
-0.178584 0 0
-0.178584 0 0
-0.185542 0 0
-0.185542 0 0
-0.190953 0 0
-0.190953 0 0
-0.194819 0 0
-0.194819 0 0
-0.197139 0 0
-0.197139 0 0
-0.197912 0 0
-0.197912 0 0
-0.197139 0 0
-0.197139 0 0
-0.194819 0 0
-0.194819 0 0
-0.190953 0 0
-0.190953 0 0
-0.185542 0 0
-0.185542 0 0
-0.178584 0 0
-0.178584 0 0
-0.17008 0 0
-0.17008 0 0
-0.16003 0 0
-0.16003 0 0
-0.148433 0 0
-0.148433 0 0
-0.135291 0 0
-0.135291 0 0
-0.120602 0 0
-0.120602 0 0
-0.104367 0 0
-0.104367 0 0
-0.0865863 0 0
-0.0865863 0 0
-0.0672591 0 0
-0.0672591 0 0
-0.0463856 0 0
-0.0463856 0 0
-0.0239659 0 0
-0.0239659 0 0
0 0 0
