# vtk DataFile Version 3.0
#This file was generated by the deal.II library on 2025/4/1 at 12:53:11
ASCII
DATASET UNSTRUCTURED_GRID

FIELD FieldData 1
TIME 1 1 double
3.45312
POINTS 64 double
0 0 0
0.03125 0 0
0.03125 0 0
0.0625 0 0
0.0625 0 0
0.09375 0 0
0.09375 0 0
0.125 0 0
0.125 0 0
0.15625 0 0
0.15625 0 0
0.1875 0 0
0.1875 0 0
0.21875 0 0
0.21875 0 0
0.25 0 0
0.25 0 0
0.28125 0 0
0.28125 0 0
0.3125 0 0
0.3125 0 0
0.34375 0 0
0.34375 0 0
0.375 0 0
0.375 0 0
0.40625 0 0
0.40625 0 0
0.4375 0 0
0.4375 0 0
0.46875 0 0
0.46875 0 0
0.5 0 0
0.5 0 0
0.53125 0 0
0.53125 0 0
0.5625 0 0
0.5625 0 0
0.59375 0 0
0.59375 0 0
0.625 0 0
0.625 0 0
0.65625 0 0
0.65625 0 0
0.6875 0 0
0.6875 0 0
0.71875 0 0
0.71875 0 0
0.75 0 0
0.75 0 0
0.78125 0 0
0.78125 0 0
0.8125 0 0
0.8125 0 0
0.84375 0 0
0.84375 0 0
0.875 0 0
0.875 0 0
0.90625 0 0
0.90625 0 0
0.9375 0 0
0.9375 0 0
0.96875 0 0
0.96875 0 0
1 0 0

CELLS 32 96
2	0	1
2	2	3
2	4	5
2	6	7
2	8	9
2	10	11
2	12	13
2	14	15
2	16	17
2	18	19
2	20	21
2	22	23
2	24	25
2	26	27
2	28	29
2	30	31
2	32	33
2	34	35
2	36	37
2	38	39
2	40	41
2	42	43
2	44	45
2	46	47
2	48	49
2	50	51
2	52	53
2	54	55
2	56	57
2	58	59
2	60	61
2	62	63

CELL_TYPES 32
 3 3 3 3 3 3 3 3 3 3 3 3 3 3 3 3 3 3 3 3 3 3 3 3 3 3 3 3 3 3 3 3
POINT_DATA 64
VECTORS displacement double
0 0 0
-0.00927908 0 0
-0.00927908 0 0
-0.0179595 0 0
-0.0179595 0 0
-0.0260414 0 0
-0.0260414 0 0
-0.0335245 0 0
-0.0335245 0 0
-0.0404091 0 0
-0.0404091 0 0
-0.046695 0 0
-0.046695 0 0
-0.0523822 0 0
-0.0523822 0 0
-0.0574709 0 0
-0.0574709 0 0
-0.0619608 0 0
-0.0619608 0 0
-0.0658522 0 0
-0.0658522 0 0
-0.0691448 0 0
-0.0691448 0 0
-0.0718389 0 0
-0.0718389 0 0
-0.0739342 0 0
-0.0739342 0 0
-0.0754309 0 0
-0.0754309 0 0
-0.0763289 0 0
-0.0763289 0 0
-0.0766283 0 0
-0.0766283 0 0
-0.0763289 0 0
-0.0763289 0 0
-0.0754309 0 0
-0.0754309 0 0
-0.0739342 0 0
-0.0739342 0 0
-0.0718389 0 0
-0.0718389 0 0
-0.0691448 0 0
-0.0691448 0 0
-0.0658522 0 0
-0.0658522 0 0
-0.0619608 0 0
-0.0619608 0 0
-0.0574709 0 0
-0.0574709 0 0
-0.0523822 0 0
-0.0523822 0 0
-0.046695 0 0
-0.046695 0 0
-0.0404091 0 0
-0.0404091 0 0
-0.0335245 0 0
-0.0335245 0 0
-0.0260414 0 0
-0.0260414 0 0
-0.0179595 0 0
-0.0179595 0 0
-0.00927908 0 0
-0.00927908 0 0
0 0 0
VECTORS velocity double
0 0 0
-0.0288138 0 0
-0.0288138 0 0
-0.0557687 0 0
-0.0557687 0 0
-0.0808647 0 0
-0.0808647 0 0
-0.104102 0 0
-0.104102 0 0
-0.12548 0 0
-0.12548 0 0
-0.144999 0 0
-0.144999 0 0
-0.162659 0 0
-0.162659 0 0
-0.17846 0 0
-0.17846 0 0
-0.192403 0 0
-0.192403 0 0
-0.204486 0 0
-0.204486 0 0
-0.21471 0 0
-0.21471 0 0
-0.223076 0 0
-0.223076 0 0
-0.229582 0 0
-0.229582 0 0
-0.23423 0 0
-0.23423 0 0
-0.237018 0 0
-0.237018 0 0
-0.237948 0 0
-0.237948 0 0
-0.237018 0 0
-0.237018 0 0
-0.23423 0 0
-0.23423 0 0
-0.229582 0 0
-0.229582 0 0
-0.223076 0 0
-0.223076 0 0
-0.21471 0 0
-0.21471 0 0
-0.204486 0 0
-0.204486 0 0
-0.192403 0 0
-0.192403 0 0
-0.17846 0 0
-0.17846 0 0
-0.162659 0 0
-0.162659 0 0
-0.144999 0 0
-0.144999 0 0
-0.12548 0 0
-0.12548 0 0
-0.104102 0 0
-0.104102 0 0
-0.0808647 0 0
-0.0808647 0 0
-0.0557687 0 0
-0.0557687 0 0
-0.0288138 0 0
-0.0288138 0 0
0 0 0
