# vtk DataFile Version 3.0
#This file was generated by the deal.II library on 2025/4/1 at 13:22:32
ASCII
DATASET UNSTRUCTURED_GRID

FIELD FieldData 1
TIME 1 1 double
3.46094
POINTS 1024 double
0 0 0
0.00195312 0 0
0.00195312 0 0
0.00390625 0 0
0.00390625 0 0
0.00585938 0 0
0.00585938 0 0
0.0078125 0 0
0.0078125 0 0
0.00976562 0 0
0.00976562 0 0
0.0117188 0 0
0.0117188 0 0
0.0136719 0 0
0.0136719 0 0
0.015625 0 0
0.015625 0 0
0.0175781 0 0
0.0175781 0 0
0.0195312 0 0
0.0195312 0 0
0.0214844 0 0
0.0214844 0 0
0.0234375 0 0
0.0234375 0 0
0.0253906 0 0
0.0253906 0 0
0.0273438 0 0
0.0273438 0 0
0.0292969 0 0
0.0292969 0 0
0.03125 0 0
0.03125 0 0
0.0332031 0 0
0.0332031 0 0
0.0351562 0 0
0.0351562 0 0
0.0371094 0 0
0.0371094 0 0
0.0390625 0 0
0.0390625 0 0
0.0410156 0 0
0.0410156 0 0
0.0429688 0 0
0.0429688 0 0
0.0449219 0 0
0.0449219 0 0
0.046875 0 0
0.046875 0 0
0.0488281 0 0
0.0488281 0 0
0.0507812 0 0
0.0507812 0 0
0.0527344 0 0
0.0527344 0 0
0.0546875 0 0
0.0546875 0 0
0.0566406 0 0
0.0566406 0 0
0.0585938 0 0
0.0585938 0 0
0.0605469 0 0
0.0605469 0 0
0.0625 0 0
0.0625 0 0
0.0644531 0 0
0.0644531 0 0
0.0664062 0 0
0.0664062 0 0
0.0683594 0 0
0.0683594 0 0
0.0703125 0 0
0.0703125 0 0
0.0722656 0 0
0.0722656 0 0
0.0742188 0 0
0.0742188 0 0
0.0761719 0 0
0.0761719 0 0
0.078125 0 0
0.078125 0 0
0.0800781 0 0
0.0800781 0 0
0.0820312 0 0
0.0820312 0 0
0.0839844 0 0
0.0839844 0 0
0.0859375 0 0
0.0859375 0 0
0.0878906 0 0
0.0878906 0 0
0.0898438 0 0
0.0898438 0 0
0.0917969 0 0
0.0917969 0 0
0.09375 0 0
0.09375 0 0
0.0957031 0 0
0.0957031 0 0
0.0976562 0 0
0.0976562 0 0
0.0996094 0 0
0.0996094 0 0
0.101562 0 0
0.101562 0 0
0.103516 0 0
0.103516 0 0
0.105469 0 0
0.105469 0 0
0.107422 0 0
0.107422 0 0
0.109375 0 0
0.109375 0 0
0.111328 0 0
0.111328 0 0
0.113281 0 0
0.113281 0 0
0.115234 0 0
0.115234 0 0
0.117188 0 0
0.117188 0 0
0.119141 0 0
0.119141 0 0
0.121094 0 0
0.121094 0 0
0.123047 0 0
0.123047 0 0
0.125 0 0
0.125 0 0
0.126953 0 0
0.126953 0 0
0.128906 0 0
0.128906 0 0
0.130859 0 0
0.130859 0 0
0.132812 0 0
0.132812 0 0
0.134766 0 0
0.134766 0 0
0.136719 0 0
0.136719 0 0
0.138672 0 0
0.138672 0 0
0.140625 0 0
0.140625 0 0
0.142578 0 0
0.142578 0 0
0.144531 0 0
0.144531 0 0
0.146484 0 0
0.146484 0 0
0.148438 0 0
0.148438 0 0
0.150391 0 0
0.150391 0 0
0.152344 0 0
0.152344 0 0
0.154297 0 0
0.154297 0 0
0.15625 0 0
0.15625 0 0
0.158203 0 0
0.158203 0 0
0.160156 0 0
0.160156 0 0
0.162109 0 0
0.162109 0 0
0.164062 0 0
0.164062 0 0
0.166016 0 0
0.166016 0 0
0.167969 0 0
0.167969 0 0
0.169922 0 0
0.169922 0 0
0.171875 0 0
0.171875 0 0
0.173828 0 0
0.173828 0 0
0.175781 0 0
0.175781 0 0
0.177734 0 0
0.177734 0 0
0.179688 0 0
0.179688 0 0
0.181641 0 0
0.181641 0 0
0.183594 0 0
0.183594 0 0
0.185547 0 0
0.185547 0 0
0.1875 0 0
0.1875 0 0
0.189453 0 0
0.189453 0 0
0.191406 0 0
0.191406 0 0
0.193359 0 0
0.193359 0 0
0.195312 0 0
0.195312 0 0
0.197266 0 0
0.197266 0 0
0.199219 0 0
0.199219 0 0
0.201172 0 0
0.201172 0 0
0.203125 0 0
0.203125 0 0
0.205078 0 0
0.205078 0 0
0.207031 0 0
0.207031 0 0
0.208984 0 0
0.208984 0 0
0.210938 0 0
0.210938 0 0
0.212891 0 0
0.212891 0 0
0.214844 0 0
0.214844 0 0
0.216797 0 0
0.216797 0 0
0.21875 0 0
0.21875 0 0
0.220703 0 0
0.220703 0 0
0.222656 0 0
0.222656 0 0
0.224609 0 0
0.224609 0 0
0.226562 0 0
0.226562 0 0
0.228516 0 0
0.228516 0 0
0.230469 0 0
0.230469 0 0
0.232422 0 0
0.232422 0 0
0.234375 0 0
0.234375 0 0
0.236328 0 0
0.236328 0 0
0.238281 0 0
0.238281 0 0
0.240234 0 0
0.240234 0 0
0.242188 0 0
0.242188 0 0
0.244141 0 0
0.244141 0 0
0.246094 0 0
0.246094 0 0
0.248047 0 0
0.248047 0 0
0.25 0 0
0.25 0 0
0.251953 0 0
0.251953 0 0
0.253906 0 0
0.253906 0 0
0.255859 0 0
0.255859 0 0
0.257812 0 0
0.257812 0 0
0.259766 0 0
0.259766 0 0
0.261719 0 0
0.261719 0 0
0.263672 0 0
0.263672 0 0
0.265625 0 0
0.265625 0 0
0.267578 0 0
0.267578 0 0
0.269531 0 0
0.269531 0 0
0.271484 0 0
0.271484 0 0
0.273438 0 0
0.273438 0 0
0.275391 0 0
0.275391 0 0
0.277344 0 0
0.277344 0 0
0.279297 0 0
0.279297 0 0
0.28125 0 0
0.28125 0 0
0.283203 0 0
0.283203 0 0
0.285156 0 0
0.285156 0 0
0.287109 0 0
0.287109 0 0
0.289062 0 0
0.289062 0 0
0.291016 0 0
0.291016 0 0
0.292969 0 0
0.292969 0 0
0.294922 0 0
0.294922 0 0
0.296875 0 0
0.296875 0 0
0.298828 0 0
0.298828 0 0
0.300781 0 0
0.300781 0 0
0.302734 0 0
0.302734 0 0
0.304688 0 0
0.304688 0 0
0.306641 0 0
0.306641 0 0
0.308594 0 0
0.308594 0 0
0.310547 0 0
0.310547 0 0
0.3125 0 0
0.3125 0 0
0.314453 0 0
0.314453 0 0
0.316406 0 0
0.316406 0 0
0.318359 0 0
0.318359 0 0
0.320312 0 0
0.320312 0 0
0.322266 0 0
0.322266 0 0
0.324219 0 0
0.324219 0 0
0.326172 0 0
0.326172 0 0
0.328125 0 0
0.328125 0 0
0.330078 0 0
0.330078 0 0
0.332031 0 0
0.332031 0 0
0.333984 0 0
0.333984 0 0
0.335938 0 0
0.335938 0 0
0.337891 0 0
0.337891 0 0
0.339844 0 0
0.339844 0 0
0.341797 0 0
0.341797 0 0
0.34375 0 0
0.34375 0 0
0.345703 0 0
0.345703 0 0
0.347656 0 0
0.347656 0 0
0.349609 0 0
0.349609 0 0
0.351562 0 0
0.351562 0 0
0.353516 0 0
0.353516 0 0
0.355469 0 0
0.355469 0 0
0.357422 0 0
0.357422 0 0
0.359375 0 0
0.359375 0 0
0.361328 0 0
0.361328 0 0
0.363281 0 0
0.363281 0 0
0.365234 0 0
0.365234 0 0
0.367188 0 0
0.367188 0 0
0.369141 0 0
0.369141 0 0
0.371094 0 0
0.371094 0 0
0.373047 0 0
0.373047 0 0
0.375 0 0
0.375 0 0
0.376953 0 0
0.376953 0 0
0.378906 0 0
0.378906 0 0
0.380859 0 0
0.380859 0 0
0.382812 0 0
0.382812 0 0
0.384766 0 0
0.384766 0 0
0.386719 0 0
0.386719 0 0
0.388672 0 0
0.388672 0 0
0.390625 0 0
0.390625 0 0
0.392578 0 0
0.392578 0 0
0.394531 0 0
0.394531 0 0
0.396484 0 0
0.396484 0 0
0.398438 0 0
0.398438 0 0
0.400391 0 0
0.400391 0 0
0.402344 0 0
0.402344 0 0
0.404297 0 0
0.404297 0 0
0.40625 0 0
0.40625 0 0
0.408203 0 0
0.408203 0 0
0.410156 0 0
0.410156 0 0
0.412109 0 0
0.412109 0 0
0.414062 0 0
0.414062 0 0
0.416016 0 0
0.416016 0 0
0.417969 0 0
0.417969 0 0
0.419922 0 0
0.419922 0 0
0.421875 0 0
0.421875 0 0
0.423828 0 0
0.423828 0 0
0.425781 0 0
0.425781 0 0
0.427734 0 0
0.427734 0 0
0.429688 0 0
0.429688 0 0
0.431641 0 0
0.431641 0 0
0.433594 0 0
0.433594 0 0
0.435547 0 0
0.435547 0 0
0.4375 0 0
0.4375 0 0
0.439453 0 0
0.439453 0 0
0.441406 0 0
0.441406 0 0
0.443359 0 0
0.443359 0 0
0.445312 0 0
0.445312 0 0
0.447266 0 0
0.447266 0 0
0.449219 0 0
0.449219 0 0
0.451172 0 0
0.451172 0 0
0.453125 0 0
0.453125 0 0
0.455078 0 0
0.455078 0 0
0.457031 0 0
0.457031 0 0
0.458984 0 0
0.458984 0 0
0.460938 0 0
0.460938 0 0
0.462891 0 0
0.462891 0 0
0.464844 0 0
0.464844 0 0
0.466797 0 0
0.466797 0 0
0.46875 0 0
0.46875 0 0
0.470703 0 0
0.470703 0 0
0.472656 0 0
0.472656 0 0
0.474609 0 0
0.474609 0 0
0.476562 0 0
0.476562 0 0
0.478516 0 0
0.478516 0 0
0.480469 0 0
0.480469 0 0
0.482422 0 0
0.482422 0 0
0.484375 0 0
0.484375 0 0
0.486328 0 0
0.486328 0 0
0.488281 0 0
0.488281 0 0
0.490234 0 0
0.490234 0 0
0.492188 0 0
0.492188 0 0
0.494141 0 0
0.494141 0 0
0.496094 0 0
0.496094 0 0
0.498047 0 0
0.498047 0 0
0.5 0 0
0.5 0 0
0.501953 0 0
0.501953 0 0
0.503906 0 0
0.503906 0 0
0.505859 0 0
0.505859 0 0
0.507812 0 0
0.507812 0 0
0.509766 0 0
0.509766 0 0
0.511719 0 0
0.511719 0 0
0.513672 0 0
0.513672 0 0
0.515625 0 0
0.515625 0 0
0.517578 0 0
0.517578 0 0
0.519531 0 0
0.519531 0 0
0.521484 0 0
0.521484 0 0
0.523438 0 0
0.523438 0 0
0.525391 0 0
0.525391 0 0
0.527344 0 0
0.527344 0 0
0.529297 0 0
0.529297 0 0
0.53125 0 0
0.53125 0 0
0.533203 0 0
0.533203 0 0
0.535156 0 0
0.535156 0 0
0.537109 0 0
0.537109 0 0
0.539062 0 0
0.539062 0 0
0.541016 0 0
0.541016 0 0
0.542969 0 0
0.542969 0 0
0.544922 0 0
0.544922 0 0
0.546875 0 0
0.546875 0 0
0.548828 0 0
0.548828 0 0
0.550781 0 0
0.550781 0 0
0.552734 0 0
0.552734 0 0
0.554688 0 0
0.554688 0 0
0.556641 0 0
0.556641 0 0
0.558594 0 0
0.558594 0 0
0.560547 0 0
0.560547 0 0
0.5625 0 0
0.5625 0 0
0.564453 0 0
0.564453 0 0
0.566406 0 0
0.566406 0 0
0.568359 0 0
0.568359 0 0
0.570312 0 0
0.570312 0 0
0.572266 0 0
0.572266 0 0
0.574219 0 0
0.574219 0 0
0.576172 0 0
0.576172 0 0
0.578125 0 0
0.578125 0 0
0.580078 0 0
0.580078 0 0
0.582031 0 0
0.582031 0 0
0.583984 0 0
0.583984 0 0
0.585938 0 0
0.585938 0 0
0.587891 0 0
0.587891 0 0
0.589844 0 0
0.589844 0 0
0.591797 0 0
0.591797 0 0
0.59375 0 0
0.59375 0 0
0.595703 0 0
0.595703 0 0
0.597656 0 0
0.597656 0 0
0.599609 0 0
0.599609 0 0
0.601562 0 0
0.601562 0 0
0.603516 0 0
0.603516 0 0
0.605469 0 0
0.605469 0 0
0.607422 0 0
0.607422 0 0
0.609375 0 0
0.609375 0 0
0.611328 0 0
0.611328 0 0
0.613281 0 0
0.613281 0 0
0.615234 0 0
0.615234 0 0
0.617188 0 0
0.617188 0 0
0.619141 0 0
0.619141 0 0
0.621094 0 0
0.621094 0 0
0.623047 0 0
0.623047 0 0
0.625 0 0
0.625 0 0
0.626953 0 0
0.626953 0 0
0.628906 0 0
0.628906 0 0
0.630859 0 0
0.630859 0 0
0.632812 0 0
0.632812 0 0
0.634766 0 0
0.634766 0 0
0.636719 0 0
0.636719 0 0
0.638672 0 0
0.638672 0 0
0.640625 0 0
0.640625 0 0
0.642578 0 0
0.642578 0 0
0.644531 0 0
0.644531 0 0
0.646484 0 0
0.646484 0 0
0.648438 0 0
0.648438 0 0
0.650391 0 0
0.650391 0 0
0.652344 0 0
0.652344 0 0
0.654297 0 0
0.654297 0 0
0.65625 0 0
0.65625 0 0
0.658203 0 0
0.658203 0 0
0.660156 0 0
0.660156 0 0
0.662109 0 0
0.662109 0 0
0.664062 0 0
0.664062 0 0
0.666016 0 0
0.666016 0 0
0.667969 0 0
0.667969 0 0
0.669922 0 0
0.669922 0 0
0.671875 0 0
0.671875 0 0
0.673828 0 0
0.673828 0 0
0.675781 0 0
0.675781 0 0
0.677734 0 0
0.677734 0 0
0.679688 0 0
0.679688 0 0
0.681641 0 0
0.681641 0 0
0.683594 0 0
0.683594 0 0
0.685547 0 0
0.685547 0 0
0.6875 0 0
0.6875 0 0
0.689453 0 0
0.689453 0 0
0.691406 0 0
0.691406 0 0
0.693359 0 0
0.693359 0 0
0.695312 0 0
0.695312 0 0
0.697266 0 0
0.697266 0 0
0.699219 0 0
0.699219 0 0
0.701172 0 0
0.701172 0 0
0.703125 0 0
0.703125 0 0
0.705078 0 0
0.705078 0 0
0.707031 0 0
0.707031 0 0
0.708984 0 0
0.708984 0 0
0.710938 0 0
0.710938 0 0
0.712891 0 0
0.712891 0 0
0.714844 0 0
0.714844 0 0
0.716797 0 0
0.716797 0 0
0.71875 0 0
0.71875 0 0
0.720703 0 0
0.720703 0 0
0.722656 0 0
0.722656 0 0
0.724609 0 0
0.724609 0 0
0.726562 0 0
0.726562 0 0
0.728516 0 0
0.728516 0 0
0.730469 0 0
0.730469 0 0
0.732422 0 0
0.732422 0 0
0.734375 0 0
0.734375 0 0
0.736328 0 0
0.736328 0 0
0.738281 0 0
0.738281 0 0
0.740234 0 0
0.740234 0 0
0.742188 0 0
0.742188 0 0
0.744141 0 0
0.744141 0 0
0.746094 0 0
0.746094 0 0
0.748047 0 0
0.748047 0 0
0.75 0 0
0.75 0 0
0.751953 0 0
0.751953 0 0
0.753906 0 0
0.753906 0 0
0.755859 0 0
0.755859 0 0
0.757812 0 0
0.757812 0 0
0.759766 0 0
0.759766 0 0
0.761719 0 0
0.761719 0 0
0.763672 0 0
0.763672 0 0
0.765625 0 0
0.765625 0 0
0.767578 0 0
0.767578 0 0
0.769531 0 0
0.769531 0 0
0.771484 0 0
0.771484 0 0
0.773438 0 0
0.773438 0 0
0.775391 0 0
0.775391 0 0
0.777344 0 0
0.777344 0 0
0.779297 0 0
0.779297 0 0
0.78125 0 0
0.78125 0 0
0.783203 0 0
0.783203 0 0
0.785156 0 0
0.785156 0 0
0.787109 0 0
0.787109 0 0
0.789062 0 0
0.789062 0 0
0.791016 0 0
0.791016 0 0
0.792969 0 0
0.792969 0 0
0.794922 0 0
0.794922 0 0
0.796875 0 0
0.796875 0 0
0.798828 0 0
0.798828 0 0
0.800781 0 0
0.800781 0 0
0.802734 0 0
0.802734 0 0
0.804688 0 0
0.804688 0 0
0.806641 0 0
0.806641 0 0
0.808594 0 0
0.808594 0 0
0.810547 0 0
0.810547 0 0
0.8125 0 0
0.8125 0 0
0.814453 0 0
0.814453 0 0
0.816406 0 0
0.816406 0 0
0.818359 0 0
0.818359 0 0
0.820312 0 0
0.820312 0 0
0.822266 0 0
0.822266 0 0
0.824219 0 0
0.824219 0 0
0.826172 0 0
0.826172 0 0
0.828125 0 0
0.828125 0 0
0.830078 0 0
0.830078 0 0
0.832031 0 0
0.832031 0 0
0.833984 0 0
0.833984 0 0
0.835938 0 0
0.835938 0 0
0.837891 0 0
0.837891 0 0
0.839844 0 0
0.839844 0 0
0.841797 0 0
0.841797 0 0
0.84375 0 0
0.84375 0 0
0.845703 0 0
0.845703 0 0
0.847656 0 0
0.847656 0 0
0.849609 0 0
0.849609 0 0
0.851562 0 0
0.851562 0 0
0.853516 0 0
0.853516 0 0
0.855469 0 0
0.855469 0 0
0.857422 0 0
0.857422 0 0
0.859375 0 0
0.859375 0 0
0.861328 0 0
0.861328 0 0
0.863281 0 0
0.863281 0 0
0.865234 0 0
0.865234 0 0
0.867188 0 0
0.867188 0 0
0.869141 0 0
0.869141 0 0
0.871094 0 0
0.871094 0 0
0.873047 0 0
0.873047 0 0
0.875 0 0
0.875 0 0
0.876953 0 0
0.876953 0 0
0.878906 0 0
0.878906 0 0
0.880859 0 0
0.880859 0 0
0.882812 0 0
0.882812 0 0
0.884766 0 0
0.884766 0 0
0.886719 0 0
0.886719 0 0
0.888672 0 0
0.888672 0 0
0.890625 0 0
0.890625 0 0
0.892578 0 0
0.892578 0 0
0.894531 0 0
0.894531 0 0
0.896484 0 0
0.896484 0 0
0.898438 0 0
0.898438 0 0
0.900391 0 0
0.900391 0 0
0.902344 0 0
0.902344 0 0
0.904297 0 0
0.904297 0 0
0.90625 0 0
0.90625 0 0
0.908203 0 0
0.908203 0 0
0.910156 0 0
0.910156 0 0
0.912109 0 0
0.912109 0 0
0.914062 0 0
0.914062 0 0
0.916016 0 0
0.916016 0 0
0.917969 0 0
0.917969 0 0
0.919922 0 0
0.919922 0 0
0.921875 0 0
0.921875 0 0
0.923828 0 0
0.923828 0 0
0.925781 0 0
0.925781 0 0
0.927734 0 0
0.927734 0 0
0.929688 0 0
0.929688 0 0
0.931641 0 0
0.931641 0 0
0.933594 0 0
0.933594 0 0
0.935547 0 0
0.935547 0 0
0.9375 0 0
0.9375 0 0
0.939453 0 0
0.939453 0 0
0.941406 0 0
0.941406 0 0
0.943359 0 0
0.943359 0 0
0.945312 0 0
0.945312 0 0
0.947266 0 0
0.947266 0 0
0.949219 0 0
0.949219 0 0
0.951172 0 0
0.951172 0 0
0.953125 0 0
0.953125 0 0
0.955078 0 0
0.955078 0 0
0.957031 0 0
0.957031 0 0
0.958984 0 0
0.958984 0 0
0.960938 0 0
0.960938 0 0
0.962891 0 0
0.962891 0 0
0.964844 0 0
0.964844 0 0
0.966797 0 0
0.966797 0 0
0.96875 0 0
0.96875 0 0
0.970703 0 0
0.970703 0 0
0.972656 0 0
0.972656 0 0
0.974609 0 0
0.974609 0 0
0.976562 0 0
0.976562 0 0
0.978516 0 0
0.978516 0 0
0.980469 0 0
0.980469 0 0
0.982422 0 0
0.982422 0 0
0.984375 0 0
0.984375 0 0
0.986328 0 0
0.986328 0 0
0.988281 0 0
0.988281 0 0
0.990234 0 0
0.990234 0 0
0.992188 0 0
0.992188 0 0
0.994141 0 0
0.994141 0 0
0.996094 0 0
0.996094 0 0
0.998047 0 0
0.998047 0 0
1 0 0

CELLS 512 1536
2	0	1
2	2	3
2	4	5
2	6	7
2	8	9
2	10	11
2	12	13
2	14	15
2	16	17
2	18	19
2	20	21
2	22	23
2	24	25
2	26	27
2	28	29
2	30	31
2	32	33
2	34	35
2	36	37
2	38	39
2	40	41
2	42	43
2	44	45
2	46	47
2	48	49
2	50	51
2	52	53
2	54	55
2	56	57
2	58	59
2	60	61
2	62	63
2	64	65
2	66	67
2	68	69
2	70	71
2	72	73
2	74	75
2	76	77
2	78	79
2	80	81
2	82	83
2	84	85
2	86	87
2	88	89
2	90	91
2	92	93
2	94	95
2	96	97
2	98	99
2	100	101
2	102	103
2	104	105
2	106	107
2	108	109
2	110	111
2	112	113
2	114	115
2	116	117
2	118	119
2	120	121
2	122	123
2	124	125
2	126	127
2	128	129
2	130	131
2	132	133
2	134	135
2	136	137
2	138	139
2	140	141
2	142	143
2	144	145
2	146	147
2	148	149
2	150	151
2	152	153
2	154	155
2	156	157
2	158	159
2	160	161
2	162	163
2	164	165
2	166	167
2	168	169
2	170	171
2	172	173
2	174	175
2	176	177
2	178	179
2	180	181
2	182	183
2	184	185
2	186	187
2	188	189
2	190	191
2	192	193
2	194	195
2	196	197
2	198	199
2	200	201
2	202	203
2	204	205
2	206	207
2	208	209
2	210	211
2	212	213
2	214	215
2	216	217
2	218	219
2	220	221
2	222	223
2	224	225
2	226	227
2	228	229
2	230	231
2	232	233
2	234	235
2	236	237
2	238	239
2	240	241
2	242	243
2	244	245
2	246	247
2	248	249
2	250	251
2	252	253
2	254	255
2	256	257
2	258	259
2	260	261
2	262	263
2	264	265
2	266	267
2	268	269
2	270	271
2	272	273
2	274	275
2	276	277
2	278	279
2	280	281
2	282	283
2	284	285
2	286	287
2	288	289
2	290	291
2	292	293
2	294	295
2	296	297
2	298	299
2	300	301
2	302	303
2	304	305
2	306	307
2	308	309
2	310	311
2	312	313
2	314	315
2	316	317
2	318	319
2	320	321
2	322	323
2	324	325
2	326	327
2	328	329
2	330	331
2	332	333
2	334	335
2	336	337
2	338	339
2	340	341
2	342	343
2	344	345
2	346	347
2	348	349
2	350	351
2	352	353
2	354	355
2	356	357
2	358	359
2	360	361
2	362	363
2	364	365
2	366	367
2	368	369
2	370	371
2	372	373
2	374	375
2	376	377
2	378	379
2	380	381
2	382	383
2	384	385
2	386	387
2	388	389
2	390	391
2	392	393
2	394	395
2	396	397
2	398	399
2	400	401
2	402	403
2	404	405
2	406	407
2	408	409
2	410	411
2	412	413
2	414	415
2	416	417
2	418	419
2	420	421
2	422	423
2	424	425
2	426	427
2	428	429
2	430	431
2	432	433
2	434	435
2	436	437
2	438	439
2	440	441
2	442	443
2	444	445
2	446	447
2	448	449
2	450	451
2	452	453
2	454	455
2	456	457
2	458	459
2	460	461
2	462	463
2	464	465
2	466	467
2	468	469
2	470	471
2	472	473
2	474	475
2	476	477
2	478	479
2	480	481
2	482	483
2	484	485
2	486	487
2	488	489
2	490	491
2	492	493
2	494	495
2	496	497
2	498	499
2	500	501
2	502	503
2	504	505
2	506	507
2	508	509
2	510	511
2	512	513
2	514	515
2	516	517
2	518	519
2	520	521
2	522	523
2	524	525
2	526	527
2	528	529
2	530	531
2	532	533
2	534	535
2	536	537
2	538	539
2	540	541
2	542	543
2	544	545
2	546	547
2	548	549
2	550	551
2	552	553
2	554	555
2	556	557
2	558	559
2	560	561
2	562	563
2	564	565
2	566	567
2	568	569
2	570	571
2	572	573
2	574	575
2	576	577
2	578	579
2	580	581
2	582	583
2	584	585
2	586	587
2	588	589
2	590	591
2	592	593
2	594	595
2	596	597
2	598	599
2	600	601
2	602	603
2	604	605
2	606	607
2	608	609
2	610	611
2	612	613
2	614	615
2	616	617
2	618	619
2	620	621
2	622	623
2	624	625
2	626	627
2	628	629
2	630	631
2	632	633
2	634	635
2	636	637
2	638	639
2	640	641
2	642	643
2	644	645
2	646	647
2	648	649
2	650	651
2	652	653
2	654	655
2	656	657
2	658	659
2	660	661
2	662	663
2	664	665
2	666	667
2	668	669
2	670	671
2	672	673
2	674	675
2	676	677
2	678	679
2	680	681
2	682	683
2	684	685
2	686	687
2	688	689
2	690	691
2	692	693
2	694	695
2	696	697
2	698	699
2	700	701
2	702	703
2	704	705
2	706	707
2	708	709
2	710	711
2	712	713
2	714	715
2	716	717
2	718	719
2	720	721
2	722	723
2	724	725
2	726	727
2	728	729
2	730	731
2	732	733
2	734	735
2	736	737
2	738	739
2	740	741
2	742	743
2	744	745
2	746	747
2	748	749
2	750	751
2	752	753
2	754	755
2	756	757
2	758	759
2	760	761
2	762	763
2	764	765
2	766	767
2	768	769
2	770	771
2	772	773
2	774	775
2	776	777
2	778	779
2	780	781
2	782	783
2	784	785
2	786	787
2	788	789
2	790	791
2	792	793
2	794	795
2	796	797
2	798	799
2	800	801
2	802	803
2	804	805
2	806	807
2	808	809
2	810	811
2	812	813
2	814	815
2	816	817
2	818	819
2	820	821
2	822	823
2	824	825
2	826	827
2	828	829
2	830	831
2	832	833
2	834	835
2	836	837
2	838	839
2	840	841
2	842	843
2	844	845
2	846	847
2	848	849
2	850	851
2	852	853
2	854	855
2	856	857
2	858	859
2	860	861
2	862	863
2	864	865
2	866	867
2	868	869
2	870	871
2	872	873
2	874	875
2	876	877
2	878	879
2	880	881
2	882	883
2	884	885
2	886	887
2	888	889
2	890	891
2	892	893
2	894	895
2	896	897
2	898	899
2	900	901
2	902	903
2	904	905
2	906	907
2	908	909
2	910	911
2	912	913
2	914	915
2	916	917
2	918	919
2	920	921
2	922	923
2	924	925
2	926	927
2	928	929
2	930	931
2	932	933
2	934	935
2	936	937
2	938	939
2	940	941
2	942	943
2	944	945
2	946	947
2	948	949
2	950	951
2	952	953
2	954	955
2	956	957
2	958	959
2	960	961
2	962	963
2	964	965
2	966	967
2	968	969
2	970	971
2	972	973
2	974	975
2	976	977
2	978	979
2	980	981
2	982	983
2	984	985
2	986	987
2	988	989
2	990	991
2	992	993
2	994	995
2	996	997
2	998	999
2	1000	1001
2	1002	1003
2	1004	1005
2	1006	1007
2	1008	1009
2	1010	1011
2	1012	1013
2	1014	1015
2	1016	1017
2	1018	1019
2	1020	1021
2	1022	1023

CELL_TYPES 512
 3 3 3 3 3 3 3 3 3 3 3 3 3 3 3 3 3 3 3 3 3 3 3 3 3 3 3 3 3 3 3 3 3 3 3 3 3 3 3 3 3 3 3 3 3 3 3 3 3 3 3 3 3 3 3 3 3 3 3 3 3 3 3 3 3 3 3 3 3 3 3 3 3 3 3 3 3 3 3 3 3 3 3 3 3 3 3 3 3 3 3 3 3 3 3 3 3 3 3 3 3 3 3 3 3 3 3 3 3 3 3 3 3 3 3 3 3 3 3 3 3 3 3 3 3 3 3 3 3 3 3 3 3 3 3 3 3 3 3 3 3 3 3 3 3 3 3 3 3 3 3 3 3 3 3 3 3 3 3 3 3 3 3 3 3 3 3 3 3 3 3 3 3 3 3 3 3 3 3 3 3 3 3 3 3 3 3 3 3 3 3 3 3 3 3 3 3 3 3 3 3 3 3 3 3 3 3 3 3 3 3 3 3 3 3 3 3 3 3 3 3 3 3 3 3 3 3 3 3 3 3 3 3 3 3 3 3 3 3 3 3 3 3 3 3 3 3 3 3 3 3 3 3 3 3 3 3 3 3 3 3 3 3 3 3 3 3 3 3 3 3 3 3 3 3 3 3 3 3 3 3 3 3 3 3 3 3 3 3 3 3 3 3 3 3 3 3 3 3 3 3 3 3 3 3 3 3 3 3 3 3 3 3 3 3 3 3 3 3 3 3 3 3 3 3 3 3 3 3 3 3 3 3 3 3 3 3 3 3 3 3 3 3 3 3 3 3 3 3 3 3 3 3 3 3 3 3 3 3 3 3 3 3 3 3 3 3 3 3 3 3 3 3 3 3 3 3 3 3 3 3 3 3 3 3 3 3 3 3 3 3 3 3 3 3 3 3 3 3 3 3 3 3 3 3 3 3 3 3 3 3 3 3 3 3 3 3 3 3 3 3 3 3 3 3 3 3 3 3 3 3 3 3 3 3 3 3 3 3 3 3 3 3 3 3 3 3 3 3 3 3 3 3 3 3 3 3 3 3 3 3 3 3 3 3 3 3 3 3 3 3 3 3 3 3 3 3 3 3 3 3 3 3 3 3 3 3 3 3 3 3 3 3 3 3 3 3 3 3 3 3 3 3 3 3 3 3 3 3 3 3 3
POINT_DATA 1024
VECTORS displacement double
0 0 0
-0.000611978 0 0
-0.000611978 0 0
-0.00122156 0 0
-0.00122156 0 0
-0.00182875 0 0
-0.00182875 0 0
-0.00243354 0 0
-0.00243354 0 0
-0.00303594 0 0
-0.00303594 0 0
-0.00363594 0 0
-0.00363594 0 0
-0.00423355 0 0
-0.00423355 0 0
-0.00482876 0 0
-0.00482876 0 0
-0.00542158 0 0
-0.00542158 0 0
-0.006012 0 0
-0.006012 0 0
-0.00660003 0 0
-0.00660003 0 0
-0.00718566 0 0
-0.00718566 0 0
-0.00776889 0 0
-0.00776889 0 0
-0.00834973 0 0
-0.00834973 0 0
-0.00892818 0 0
-0.00892818 0 0
-0.00950423 0 0
-0.00950423 0 0
-0.0100779 0 0
-0.0100779 0 0
-0.0106491 0 0
-0.0106491 0 0
-0.011218 0 0
-0.011218 0 0
-0.0117845 0 0
-0.0117845 0 0
-0.0123486 0 0
-0.0123486 0 0
-0.0129102 0 0
-0.0129102 0 0
-0.0134695 0 0
-0.0134695 0 0
-0.0140264 0 0
-0.0140264 0 0
-0.0145809 0 0
-0.0145809 0 0
-0.015133 0 0
-0.015133 0 0
-0.0156827 0 0
-0.0156827 0 0
-0.01623 0 0
-0.01623 0 0
-0.0167749 0 0
-0.0167749 0 0
-0.0173174 0 0
-0.0173174 0 0
-0.0178576 0 0
-0.0178576 0 0
-0.0183953 0 0
-0.0183953 0 0
-0.0189306 0 0
-0.0189306 0 0
-0.0194636 0 0
-0.0194636 0 0
-0.0199941 0 0
-0.0199941 0 0
-0.0205222 0 0
-0.0205222 0 0
-0.021048 0 0
-0.021048 0 0
-0.0215713 0 0
-0.0215713 0 0
-0.0220923 0 0
-0.0220923 0 0
-0.0226109 0 0
-0.0226109 0 0
-0.023127 0 0
-0.023127 0 0
-0.0236408 0 0
-0.0236408 0 0
-0.0241522 0 0
-0.0241522 0 0
-0.0246612 0 0
-0.0246612 0 0
-0.0251678 0 0
-0.0251678 0 0
-0.025672 0 0
-0.025672 0 0
-0.0261738 0 0
-0.0261738 0 0
-0.0266732 0 0
-0.0266732 0 0
-0.0271702 0 0
-0.0271702 0 0
-0.0276648 0 0
-0.0276648 0 0
-0.028157 0 0
-0.028157 0 0
-0.0286468 0 0
-0.0286468 0 0
-0.0291342 0 0
-0.0291342 0 0
-0.0296193 0 0
-0.0296193 0 0
-0.0301019 0 0
-0.0301019 0 0
-0.0305822 0 0
-0.0305822 0 0
-0.03106 0 0
-0.03106 0 0
-0.0315355 0 0
-0.0315355 0 0
-0.0320085 0 0
-0.0320085 0 0
-0.0324792 0 0
-0.0324792 0 0
-0.0329474 0 0
-0.0329474 0 0
-0.0334133 0 0
-0.0334133 0 0
-0.0338768 0 0
-0.0338768 0 0
-0.0343379 0 0
-0.0343379 0 0
-0.0347965 0 0
-0.0347965 0 0
-0.0352528 0 0
-0.0352528 0 0
-0.0357067 0 0
-0.0357067 0 0
-0.0361582 0 0
-0.0361582 0 0
-0.0366073 0 0
-0.0366073 0 0
-0.037054 0 0
-0.037054 0 0
-0.0374984 0 0
-0.0374984 0 0
-0.0379403 0 0
-0.0379403 0 0
-0.0383798 0 0
-0.0383798 0 0
-0.0388169 0 0
-0.0388169 0 0
-0.0392517 0 0
-0.0392517 0 0
-0.039684 0 0
-0.039684 0 0
-0.0401139 0 0
-0.0401139 0 0
-0.0405415 0 0
-0.0405415 0 0
-0.0409666 0 0
-0.0409666 0 0
-0.0413894 0 0
-0.0413894 0 0
-0.0418097 0 0
-0.0418097 0 0
-0.0422277 0 0
-0.0422277 0 0
-0.0426433 0 0
-0.0426433 0 0
-0.0430565 0 0
-0.0430565 0 0
-0.0434672 0 0
-0.0434672 0 0
-0.0438756 0 0
-0.0438756 0 0
-0.0442816 0 0
-0.0442816 0 0
-0.0446852 0 0
-0.0446852 0 0
-0.0450864 0 0
-0.0450864 0 0
-0.0454852 0 0
-0.0454852 0 0
-0.0458816 0 0
-0.0458816 0 0
-0.0462756 0 0
-0.0462756 0 0
-0.0466672 0 0
-0.0466672 0 0
-0.0470565 0 0
-0.0470565 0 0
-0.0474433 0 0
-0.0474433 0 0
-0.0478277 0 0
-0.0478277 0 0
-0.0482098 0 0
-0.0482098 0 0
-0.0485894 0 0
-0.0485894 0 0
-0.0489667 0 0
-0.0489667 0 0
-0.0493415 0 0
-0.0493415 0 0
-0.049714 0 0
-0.049714 0 0
-0.050084 0 0
-0.050084 0 0
-0.0504517 0 0
-0.0504517 0 0
-0.050817 0 0
-0.050817 0 0
-0.0511798 0 0
-0.0511798 0 0
-0.0515403 0 0
-0.0515403 0 0
-0.0518984 0 0
-0.0518984 0 0
-0.0522541 0 0
-0.0522541 0 0
-0.0526074 0 0
-0.0526074 0 0
-0.0529583 0 0
-0.0529583 0 0
-0.0533068 0 0
-0.0533068 0 0
-0.0536529 0 0
-0.0536529 0 0
-0.0539966 0 0
-0.0539966 0 0
-0.0543379 0 0
-0.0543379 0 0
-0.0546768 0 0
-0.0546768 0 0
-0.0550134 0 0
-0.0550134 0 0
-0.0553475 0 0
-0.0553475 0 0
-0.0556792 0 0
-0.0556792 0 0
-0.0560086 0 0
-0.0560086 0 0
-0.0563355 0 0
-0.0563355 0 0
-0.0566601 0 0
-0.0566601 0 0
-0.0569822 0 0
-0.0569822 0 0
-0.057302 0 0
-0.057302 0 0
-0.0576194 0 0
-0.0576194 0 0
-0.0579343 0 0
-0.0579343 0 0
-0.0582469 0 0
-0.0582469 0 0
-0.0585571 0 0
-0.0585571 0 0
-0.0588649 0 0
-0.0588649 0 0
-0.0591703 0 0
-0.0591703 0 0
-0.0594733 0 0
-0.0594733 0 0
-0.0597739 0 0
-0.0597739 0 0
-0.0600721 0 0
-0.0600721 0 0
-0.0603679 0 0
-0.0603679 0 0
-0.0606613 0 0
-0.0606613 0 0
-0.0609523 0 0
-0.0609523 0 0
-0.0612409 0 0
-0.0612409 0 0
-0.0615272 0 0
-0.0615272 0 0
-0.061811 0 0
-0.061811 0 0
-0.0620924 0 0
-0.0620924 0 0
-0.0623715 0 0
-0.0623715 0 0
-0.0626481 0 0
-0.0626481 0 0
-0.0629224 0 0
-0.0629224 0 0
-0.0631942 0 0
-0.0631942 0 0
-0.0634637 0 0
-0.0634637 0 0
-0.0637308 0 0
-0.0637308 0 0
-0.0639954 0 0
-0.0639954 0 0
-0.0642577 0 0
-0.0642577 0 0
-0.0645176 0 0
-0.0645176 0 0
-0.0647751 0 0
-0.0647751 0 0
-0.0650302 0 0
-0.0650302 0 0
-0.0652829 0 0
-0.0652829 0 0
-0.0655332 0 0
-0.0655332 0 0
-0.0657811 0 0
-0.0657811 0 0
-0.0660266 0 0
-0.0660266 0 0
-0.0662697 0 0
-0.0662697 0 0
-0.0665104 0 0
-0.0665104 0 0
-0.0667487 0 0
-0.0667487 0 0
-0.0669847 0 0
-0.0669847 0 0
-0.0672182 0 0
-0.0672182 0 0
-0.0674493 0 0
-0.0674493 0 0
-0.0676781 0 0
-0.0676781 0 0
-0.0679044 0 0
-0.0679044 0 0
-0.0681284 0 0
-0.0681284 0 0
-0.0683499 0 0
-0.0683499 0 0
-0.0685691 0 0
-0.0685691 0 0
-0.0687859 0 0
-0.0687859 0 0
-0.0690002 0 0
-0.0690002 0 0
-0.0692122 0 0
-0.0692122 0 0
-0.0694218 0 0
-0.0694218 0 0
-0.069629 0 0
-0.069629 0 0
-0.0698338 0 0
-0.0698338 0 0
-0.0700362 0 0
-0.0700362 0 0
-0.0702362 0 0
-0.0702362 0 0
-0.0704338 0 0
-0.0704338 0 0
-0.070629 0 0
-0.070629 0 0
-0.0708218 0 0
-0.0708218 0 0
-0.0710122 0 0
-0.0710122 0 0
-0.0712002 0 0
-0.0712002 0 0
-0.0713859 0 0
-0.0713859 0 0
-0.0715691 0 0
-0.0715691 0 0
-0.0717499 0 0
-0.0717499 0 0
-0.0719284 0 0
-0.0719284 0 0
-0.0721044 0 0
-0.0721044 0 0
-0.0722781 0 0
-0.0722781 0 0
-0.0724493 0 0
-0.0724493 0 0
-0.0726182 0 0
-0.0726182 0 0
-0.0727847 0 0
-0.0727847 0 0
-0.0729487 0 0
-0.0729487 0 0
-0.0731104 0 0
-0.0731104 0 0
-0.0732697 0 0
-0.0732697 0 0
-0.0734266 0 0
-0.0734266 0 0
-0.0735811 0 0
-0.0735811 0 0
-0.0737332 0 0
-0.0737332 0 0
-0.0738829 0 0
-0.0738829 0 0
-0.0740302 0 0
-0.0740302 0 0
-0.0741751 0 0
-0.0741751 0 0
-0.0743176 0 0
-0.0743176 0 0
-0.0744577 0 0
-0.0744577 0 0
-0.0745955 0 0
-0.0745955 0 0
-0.0747308 0 0
-0.0747308 0 0
-0.0748637 0 0
-0.0748637 0 0
-0.0749943 0 0
-0.0749943 0 0
-0.0751224 0 0
-0.0751224 0 0
-0.0752481 0 0
-0.0752481 0 0
-0.0753715 0 0
-0.0753715 0 0
-0.0754925 0 0
-0.0754925 0 0
-0.075611 0 0
-0.075611 0 0
-0.0757272 0 0
-0.0757272 0 0
-0.075841 0 0
-0.075841 0 0
-0.0759523 0 0
-0.0759523 0 0
-0.0760613 0 0
-0.0760613 0 0
-0.0761679 0 0
-0.0761679 0 0
-0.0762721 0 0
-0.0762721 0 0
-0.0763739 0 0
-0.0763739 0 0
-0.0764733 0 0
-0.0764733 0 0
-0.0765703 0 0
-0.0765703 0 0
-0.0766649 0 0
-0.0766649 0 0
-0.0767571 0 0
-0.0767571 0 0
-0.0768469 0 0
-0.0768469 0 0
-0.0769344 0 0
-0.0769344 0 0
-0.0770194 0 0
-0.0770194 0 0
-0.077102 0 0
-0.077102 0 0
-0.0771823 0 0
-0.0771823 0 0
-0.0772601 0 0
-0.0772601 0 0
-0.0773356 0 0
-0.0773356 0 0
-0.0774086 0 0
-0.0774086 0 0
-0.0774793 0 0
-0.0774793 0 0
-0.0775476 0 0
-0.0775476 0 0
-0.0776134 0 0
-0.0776134 0 0
-0.0776769 0 0
-0.0776769 0 0
-0.077738 0 0
-0.077738 0 0
-0.0777967 0 0
-0.0777967 0 0
-0.0778529 0 0
-0.0778529 0 0
-0.0779068 0 0
-0.0779068 0 0
-0.0779583 0 0
-0.0779583 0 0
-0.0780074 0 0
-0.0780074 0 0
-0.0780541 0 0
-0.0780541 0 0
-0.0780984 0 0
-0.0780984 0 0
-0.0781404 0 0
-0.0781404 0 0
-0.0781799 0 0
-0.0781799 0 0
-0.078217 0 0
-0.078217 0 0
-0.0782517 0 0
-0.0782517 0 0
-0.0782841 0 0
-0.0782841 0 0
-0.078314 0 0
-0.078314 0 0
-0.0783416 0 0
-0.0783416 0 0
-0.0783667 0 0
-0.0783667 0 0
-0.0783895 0 0
-0.0783895 0 0
-0.0784098 0 0
-0.0784098 0 0
-0.0784278 0 0
-0.0784278 0 0
-0.0784434 0 0
-0.0784434 0 0
-0.0784565 0 0
-0.0784565 0 0
-0.0784673 0 0
-0.0784673 0 0
-0.0784757 0 0
-0.0784757 0 0
-0.0784817 0 0
-0.0784817 0 0
-0.0784853 0 0
-0.0784853 0 0
-0.0784865 0 0
-0.0784865 0 0
-0.0784853 0 0
-0.0784853 0 0
-0.0784817 0 0
-0.0784817 0 0
-0.0784757 0 0
-0.0784757 0 0
-0.0784673 0 0
-0.0784673 0 0
-0.0784565 0 0
-0.0784565 0 0
-0.0784434 0 0
-0.0784434 0 0
-0.0784278 0 0
-0.0784278 0 0
-0.0784098 0 0
-0.0784098 0 0
-0.0783895 0 0
-0.0783895 0 0
-0.0783667 0 0
-0.0783667 0 0
-0.0783416 0 0
-0.0783416 0 0
-0.078314 0 0
-0.078314 0 0
-0.0782841 0 0
-0.0782841 0 0
-0.0782517 0 0
-0.0782517 0 0
-0.078217 0 0
-0.078217 0 0
-0.0781799 0 0
-0.0781799 0 0
-0.0781404 0 0
-0.0781404 0 0
-0.0780984 0 0
-0.0780984 0 0
-0.0780541 0 0
-0.0780541 0 0
-0.0780074 0 0
-0.0780074 0 0
-0.0779583 0 0
-0.0779583 0 0
-0.0779068 0 0
-0.0779068 0 0
-0.0778529 0 0
-0.0778529 0 0
-0.0777967 0 0
-0.0777967 0 0
-0.077738 0 0
-0.077738 0 0
-0.0776769 0 0
-0.0776769 0 0
-0.0776134 0 0
-0.0776134 0 0
-0.0775476 0 0
-0.0775476 0 0
-0.0774793 0 0
-0.0774793 0 0
-0.0774086 0 0
-0.0774086 0 0
-0.0773356 0 0
-0.0773356 0 0
-0.0772601 0 0
-0.0772601 0 0
-0.0771823 0 0
-0.0771823 0 0
-0.077102 0 0
-0.077102 0 0
-0.0770194 0 0
-0.0770194 0 0
-0.0769344 0 0
-0.0769344 0 0
-0.0768469 0 0
-0.0768469 0 0
-0.0767571 0 0
-0.0767571 0 0
-0.0766649 0 0
-0.0766649 0 0
-0.0765703 0 0
-0.0765703 0 0
-0.0764733 0 0
-0.0764733 0 0
-0.0763739 0 0
-0.0763739 0 0
-0.0762721 0 0
-0.0762721 0 0
-0.0761679 0 0
-0.0761679 0 0
-0.0760613 0 0
-0.0760613 0 0
-0.0759523 0 0
-0.0759523 0 0
-0.075841 0 0
-0.075841 0 0
-0.0757272 0 0
-0.0757272 0 0
-0.075611 0 0
-0.075611 0 0
-0.0754925 0 0
-0.0754925 0 0
-0.0753715 0 0
-0.0753715 0 0
-0.0752481 0 0
-0.0752481 0 0
-0.0751224 0 0
-0.0751224 0 0
-0.0749943 0 0
-0.0749943 0 0
-0.0748637 0 0
-0.0748637 0 0
-0.0747308 0 0
-0.0747308 0 0
-0.0745955 0 0
-0.0745955 0 0
-0.0744577 0 0
-0.0744577 0 0
-0.0743176 0 0
-0.0743176 0 0
-0.0741751 0 0
-0.0741751 0 0
-0.0740302 0 0
-0.0740302 0 0
-0.0738829 0 0
-0.0738829 0 0
-0.0737332 0 0
-0.0737332 0 0
-0.0735811 0 0
-0.0735811 0 0
-0.0734266 0 0
-0.0734266 0 0
-0.0732697 0 0
-0.0732697 0 0
-0.0731104 0 0
-0.0731104 0 0
-0.0729487 0 0
-0.0729487 0 0
-0.0727847 0 0
-0.0727847 0 0
-0.0726182 0 0
-0.0726182 0 0
-0.0724493 0 0
-0.0724493 0 0
-0.0722781 0 0
-0.0722781 0 0
-0.0721044 0 0
-0.0721044 0 0
-0.0719284 0 0
-0.0719284 0 0
-0.0717499 0 0
-0.0717499 0 0
-0.0715691 0 0
-0.0715691 0 0
-0.0713859 0 0
-0.0713859 0 0
-0.0712002 0 0
-0.0712002 0 0
-0.0710122 0 0
-0.0710122 0 0
-0.0708218 0 0
-0.0708218 0 0
-0.070629 0 0
-0.070629 0 0
-0.0704338 0 0
-0.0704338 0 0
-0.0702362 0 0
-0.0702362 0 0
-0.0700362 0 0
-0.0700362 0 0
-0.0698338 0 0
-0.0698338 0 0
-0.069629 0 0
-0.069629 0 0
-0.0694218 0 0
-0.0694218 0 0
-0.0692122 0 0
-0.0692122 0 0
-0.0690002 0 0
-0.0690002 0 0
-0.0687859 0 0
-0.0687859 0 0
-0.0685691 0 0
-0.0685691 0 0