# vtk DataFile Version 3.0
#This file was generated by the deal.II library on 2025/4/1 at 12:59:34
ASCII
DATASET UNSTRUCTURED_GRID

FIELD FieldData 1
TIME 1 1 double
2.71735
POINTS 32 double
0 0 0
0.0625 0 0
0.0625 0 0
0.125 0 0
0.125 0 0
0.1875 0 0
0.1875 0 0
0.25 0 0
0.25 0 0
0.3125 0 0
0.3125 0 0
0.375 0 0
0.375 0 0
0.4375 0 0
0.4375 0 0
0.5 0 0
0.5 0 0
0.5625 0 0
0.5625 0 0
0.625 0 0
0.625 0 0
0.6875 0 0
0.6875 0 0
0.75 0 0
0.75 0 0
0.8125 0 0
0.8125 0 0
0.875 0 0
0.875 0 0
0.9375 0 0
0.9375 0 0
1 0 0

CELLS 16 48
2	0	1
2	2	3
2	4	5
2	6	7
2	8	9
2	10	11
2	12	13
2	14	15
2	16	17
2	18	19
2	20	21
2	22	23
2	24	25
2	26	27
2	28	29
2	30	31

CELL_TYPES 16
 3 3 3 3 3 3 3 3 3 3 3 3 3 3 3 3
POINT_DATA 32
VECTORS displacement double
0 0 0
0.0240207 0 0
0.0240207 0 0
0.0448279 0 0
0.0448279 0 0
0.0624239 0 0
0.0624239 0 0
0.0768121 0 0
0.0768121 0 0
0.0879968 0 0
0.0879968 0 0
0.0959823 0 0
0.0959823 0 0
0.100772 0 0
0.100772 0 0
0.102368 0 0
0.102368 0 0
0.100772 0 0
0.100772 0 0
0.0959823 0 0
0.0959823 0 0
0.0879968 0 0
0.0879968 0 0
0.0768121 0 0
0.0768121 0 0
0.0624239 0 0
0.0624239 0 0
0.0448279 0 0
0.0448279 0 0
0.0240207 0 0
0.0240207 0 0
0 0 0
VECTORS velocity double
0 0 0
-0.0538548 0 0
-0.0538548 0 0
-0.100564 0 0
-0.100564 0 0
-0.140097 0 0
-0.140097 0 0
-0.172436 0 0
-0.172436 0 0
-0.197576 0 0
-0.197576 0 0
-0.215522 0 0
-0.215522 0 0
-0.226284 0 0
-0.226284 0 0
-0.22987 0 0
-0.22987 0 0
-0.226284 0 0
-0.226284 0 0
-0.215522 0 0
-0.215522 0 0
-0.197576 0 0
-0.197576 0 0
-0.172436 0 0
-0.172436 0 0
-0.140097 0 0
-0.140097 0 0
-0.100564 0 0
-0.100564 0 0
-0.0538548 0 0
-0.0538548 0 0
0 0 0
