# vtk DataFile Version 3.0
#This file was generated by the deal.II library on 2025/3/31 at 13:23:52
ASCII
DATASET UNSTRUCTURED_GRID

FIELD FieldData 1
TIME 1 1 double
3.67188
POINTS 64 double
0 0 0
0.03125 0 0
0.03125 0 0
0.0625 0 0
0.0625 0 0
0.09375 0 0
0.09375 0 0
0.125 0 0
0.125 0 0
0.15625 0 0
0.15625 0 0
0.1875 0 0
0.1875 0 0
0.21875 0 0
0.21875 0 0
0.25 0 0
0.25 0 0
0.28125 0 0
0.28125 0 0
0.3125 0 0
0.3125 0 0
0.34375 0 0
0.34375 0 0
0.375 0 0
0.375 0 0
0.40625 0 0
0.40625 0 0
0.4375 0 0
0.4375 0 0
0.46875 0 0
0.46875 0 0
0.5 0 0
0.5 0 0
0.53125 0 0
0.53125 0 0
0.5625 0 0
0.5625 0 0
0.59375 0 0
0.59375 0 0
0.625 0 0
0.625 0 0
0.65625 0 0
0.65625 0 0
0.6875 0 0
0.6875 0 0
0.71875 0 0
0.71875 0 0
0.75 0 0
0.75 0 0
0.78125 0 0
0.78125 0 0
0.8125 0 0
0.8125 0 0
0.84375 0 0
0.84375 0 0
0.875 0 0
0.875 0 0
0.90625 0 0
0.90625 0 0
0.9375 0 0
0.9375 0 0
0.96875 0 0
0.96875 0 0
1 0 0

CELLS 32 96
2	0	1
2	2	3
2	4	5
2	6	7
2	8	9
2	10	11
2	12	13
2	14	15
2	16	17
2	18	19
2	20	21
2	22	23
2	24	25
2	26	27
2	28	29
2	30	31
2	32	33
2	34	35
2	36	37
2	38	39
2	40	41
2	42	43
2	44	45
2	46	47
2	48	49
2	50	51
2	52	53
2	54	55
2	56	57
2	58	59
2	60	61
2	62	63

CELL_TYPES 32
 3 3 3 3 3 3 3 3 3 3 3 3 3 3 3 3 3 3 3 3 3 3 3 3 3 3 3 3 3 3 3 3
POINT_DATA 64
VECTORS displacement double
0 0 0
-0.0151758 0 0
-0.0151758 0 0
-0.029365 0 0
-0.029365 0 0
-0.0425689 0 0
-0.0425689 0 0
-0.0547886 0 0
-0.0547886 0 0
-0.0660255 0 0
-0.0660255 0 0
-0.0762807 0 0
-0.0762807 0 0
-0.0855553 0 0
-0.0855553 0 0
-0.0938504 0 0
-0.0938504 0 0
-0.101167 0 0
-0.101167 0 0
-0.107506 0 0
-0.107506 0 0
-0.112868 0 0
-0.112868 0 0
-0.117255 0 0
-0.117255 0 0
-0.120666 0 0
-0.120666 0 0
-0.123102 0 0
-0.123102 0 0
-0.124563 0 0
-0.124563 0 0
-0.12505 0 0
-0.12505 0 0
-0.124563 0 0
-0.124563 0 0
-0.123102 0 0
-0.123102 0 0
-0.120666 0 0
-0.120666 0 0
-0.117255 0 0
-0.117255 0 0
-0.112868 0 0
-0.112868 0 0
-0.107506 0 0
-0.107506 0 0
-0.101167 0 0
-0.101167 0 0
-0.0938504 0 0
-0.0938504 0 0
-0.0855553 0 0
-0.0855553 0 0
-0.0762807 0 0
-0.0762807 0 0
-0.0660255 0 0
-0.0660255 0 0
-0.0547886 0 0
-0.0547886 0 0
-0.0425689 0 0
-0.0425689 0 0
-0.029365 0 0
-0.029365 0 0
-0.0151758 0 0
-0.0151758 0 0
0 0 0
VECTORS velocity double
0 0 0
-0.0253971 0 0
-0.0253971 0 0
-0.0491161 0 0
-0.0491161 0 0
-0.0711645 0 0
-0.0711645 0 0
-0.0915489 0 0
-0.0915489 0 0
-0.110277 0 0
-0.110277 0 0
-0.127354 0 0
-0.127354 0 0
-0.142787 0 0
-0.142787 0 0
-0.15658 0 0
-0.15658 0 0
-0.168739 0 0
-0.168739 0 0
-0.179268 0 0
-0.179268 0 0
-0.188171 0 0
-0.188171 0 0
-0.195452 0 0
-0.195452 0 0
-0.201111 0 0
-0.201111 0 0
-0.205153 0 0
-0.205153 0 0
-0.207576 0 0
-0.207576 0 0
-0.208384 0 0
-0.208384 0 0
-0.207576 0 0
-0.207576 0 0
-0.205153 0 0
-0.205153 0 0
-0.201111 0 0
-0.201111 0 0
-0.195452 0 0
-0.195452 0 0
-0.188171 0 0
-0.188171 0 0
-0.179268 0 0
-0.179268 0 0
-0.168739 0 0
-0.168739 0 0
-0.15658 0 0
-0.15658 0 0
-0.142787 0 0
-0.142787 0 0
-0.127354 0 0
-0.127354 0 0
-0.110277 0 0
-0.110277 0 0
-0.0915489 0 0
-0.0915489 0 0
-0.0711645 0 0
-0.0711645 0 0
-0.0491161 0 0
-0.0491161 0 0
-0.0253971 0 0
-0.0253971 0 0
0 0 0
