# vtk DataFile Version 3.0
#This file was generated by the deal.II library on 2025/3/27 at 12:13:35
ASCII
DATASET UNSTRUCTURED_GRID

FIELD FieldData 1
TIME 1 1 double
2.14062
POINTS 64 double
0 0 0
0.03125 0 0
0.03125 0 0
0.0625 0 0
0.0625 0 0
0.09375 0 0
0.09375 0 0
0.125 0 0
0.125 0 0
0.15625 0 0
0.15625 0 0
0.1875 0 0
0.1875 0 0
0.21875 0 0
0.21875 0 0
0.25 0 0
0.25 0 0
0.28125 0 0
0.28125 0 0
0.3125 0 0
0.3125 0 0
0.34375 0 0
0.34375 0 0
0.375 0 0
0.375 0 0
0.40625 0 0
0.40625 0 0
0.4375 0 0
0.4375 0 0
0.46875 0 0
0.46875 0 0
0.5 0 0
0.5 0 0
0.53125 0 0
0.53125 0 0
0.5625 0 0
0.5625 0 0
0.59375 0 0
0.59375 0 0
0.625 0 0
0.625 0 0
0.65625 0 0
0.65625 0 0
0.6875 0 0
0.6875 0 0
0.71875 0 0
0.71875 0 0
0.75 0 0
0.75 0 0
0.78125 0 0
0.78125 0 0
0.8125 0 0
0.8125 0 0
0.84375 0 0
0.84375 0 0
0.875 0 0
0.875 0 0
0.90625 0 0
0.90625 0 0
0.9375 0 0
0.9375 0 0
0.96875 0 0
0.96875 0 0
1 0 0

CELLS 32 96
2	0	1
2	2	3
2	4	5
2	6	7
2	8	9
2	10	11
2	12	13
2	14	15
2	16	17
2	18	19
2	20	21
2	22	23
2	24	25
2	26	27
2	28	29
2	30	31
2	32	33
2	34	35
2	36	37
2	38	39
2	40	41
2	42	43
2	44	45
2	46	47
2	48	49
2	50	51
2	52	53
2	54	55
2	56	57
2	58	59
2	60	61
2	62	63

CELL_TYPES 32
 3 3 3 3 3 3 3 3 3 3 3 3 3 3 3 3 3 3 3 3 3 3 3 3 3 3 3 3 3 3 3 3
POINT_DATA 64
VECTORS displacement double
0 0 0
0.0833597 0 0
0.0833597 0 0
0.165917 0 0
0.165917 0 0
0.246876 0 0
0.246876 0 0
0.325457 0 0
0.325457 0 0
0.400904 0 0
0.400904 0 0
0.472491 0 0
0.472491 0 0
0.539527 0 0
0.539527 0 0
0.601367 0 0
0.601367 0 0
0.657415 0 0
0.657415 0 0
0.707132 0 0
0.707132 0 0
0.750039 0 0
0.750039 0 0
0.785723 0 0
0.785723 0 0
0.81384 0 0
0.81384 0 0
0.834119 0 0
0.834119 0 0
0.846366 0 0
0.846366 0 0
0.850461 0 0
0.850461 0 0
0.846366 0 0
0.846366 0 0
0.834119 0 0
0.834119 0 0
0.81384 0 0
0.81384 0 0
0.785723 0 0
0.785723 0 0
0.750039 0 0
0.750039 0 0
0.707132 0 0
0.707132 0 0
0.657415 0 0
0.657415 0 0
0.601367 0 0
0.601367 0 0
0.539527 0 0
0.539527 0 0
0.472491 0 0
0.472491 0 0
0.400904 0 0
0.400904 0 0
0.325457 0 0
0.325457 0 0
0.246876 0 0
0.246876 0 0
0.165917 0 0
0.165917 0 0
0.0833597 0 0
0.0833597 0 0
0 0 0
VECTORS velocity double
0 0 0
-0.0541183 0 0
-0.0541183 0 0
-0.107715 0 0
-0.107715 0 0
-0.160275 0 0
-0.160275 0 0
-0.211291 0 0
-0.211291 0 0
-0.260273 0 0
-0.260273 0 0
-0.306748 0 0
-0.306748 0 0
-0.350268 0 0
-0.350268 0 0
-0.390416 0 0
-0.390416 0 0
-0.426803 0 0
-0.426803 0 0
-0.45908 0 0
-0.45908 0 0
-0.486936 0 0
-0.486936 0 0
-0.510103 0 0
-0.510103 0 0
-0.528356 0 0
-0.528356 0 0
-0.541522 0 0
-0.541522 0 0
-0.549472 0 0
-0.549472 0 0
-0.552131 0 0
-0.552131 0 0
-0.549472 0 0
-0.549472 0 0
-0.541522 0 0
-0.541522 0 0
-0.528356 0 0
-0.528356 0 0
-0.510103 0 0
-0.510103 0 0
-0.486936 0 0
-0.486936 0 0
-0.45908 0 0
-0.45908 0 0
-0.426803 0 0
-0.426803 0 0
-0.390416 0 0
-0.390416 0 0
-0.350268 0 0
-0.350268 0 0
-0.306748 0 0
-0.306748 0 0
-0.260273 0 0
-0.260273 0 0
-0.211291 0 0
-0.211291 0 0
-0.160275 0 0
-0.160275 0 0
-0.107715 0 0
-0.107715 0 0
-0.0541183 0 0
-0.0541183 0 0
0 0 0
