# vtk DataFile Version 3.0
#This file was generated by the deal.II library on 2025/4/1 at 12:54:31
ASCII
DATASET UNSTRUCTURED_GRID

FIELD FieldData 1
TIME 1 1 double
2.07031
POINTS 128 double
0 0 0
0.015625 0 0
0.015625 0 0
0.03125 0 0
0.03125 0 0
0.046875 0 0
0.046875 0 0
0.0625 0 0
0.0625 0 0
0.078125 0 0
0.078125 0 0
0.09375 0 0
0.09375 0 0
0.109375 0 0
0.109375 0 0
0.125 0 0
0.125 0 0
0.140625 0 0
0.140625 0 0
0.15625 0 0
0.15625 0 0
0.171875 0 0
0.171875 0 0
0.1875 0 0
0.1875 0 0
0.203125 0 0
0.203125 0 0
0.21875 0 0
0.21875 0 0
0.234375 0 0
0.234375 0 0
0.25 0 0
0.25 0 0
0.265625 0 0
0.265625 0 0
0.28125 0 0
0.28125 0 0
0.296875 0 0
0.296875 0 0
0.3125 0 0
0.3125 0 0
0.328125 0 0
0.328125 0 0
0.34375 0 0
0.34375 0 0
0.359375 0 0
0.359375 0 0
0.375 0 0
0.375 0 0
0.390625 0 0
0.390625 0 0
0.40625 0 0
0.40625 0 0
0.421875 0 0
0.421875 0 0
0.4375 0 0
0.4375 0 0
0.453125 0 0
0.453125 0 0
0.46875 0 0
0.46875 0 0
0.484375 0 0
0.484375 0 0
0.5 0 0
0.5 0 0
0.515625 0 0
0.515625 0 0
0.53125 0 0
0.53125 0 0
0.546875 0 0
0.546875 0 0
0.5625 0 0
0.5625 0 0
0.578125 0 0
0.578125 0 0
0.59375 0 0
0.59375 0 0
0.609375 0 0
0.609375 0 0
0.625 0 0
0.625 0 0
0.640625 0 0
0.640625 0 0
0.65625 0 0
0.65625 0 0
0.671875 0 0
0.671875 0 0
0.6875 0 0
0.6875 0 0
0.703125 0 0
0.703125 0 0
0.71875 0 0
0.71875 0 0
0.734375 0 0
0.734375 0 0
0.75 0 0
0.75 0 0
0.765625 0 0
0.765625 0 0
0.78125 0 0
0.78125 0 0
0.796875 0 0
0.796875 0 0
0.8125 0 0
0.8125 0 0
0.828125 0 0
0.828125 0 0
0.84375 0 0
0.84375 0 0
0.859375 0 0
0.859375 0 0
0.875 0 0
0.875 0 0
0.890625 0 0
0.890625 0 0
0.90625 0 0
0.90625 0 0
0.921875 0 0
0.921875 0 0
0.9375 0 0
0.9375 0 0
0.953125 0 0
0.953125 0 0
0.96875 0 0
0.96875 0 0
0.984375 0 0
0.984375 0 0
1 0 0

CELLS 64 192
2	0	1
2	2	3
2	4	5
2	6	7
2	8	9
2	10	11
2	12	13
2	14	15
2	16	17
2	18	19
2	20	21
2	22	23
2	24	25
2	26	27
2	28	29
2	30	31
2	32	33
2	34	35
2	36	37
2	38	39
2	40	41
2	42	43
2	44	45
2	46	47
2	48	49
2	50	51
2	52	53
2	54	55
2	56	57
2	58	59
2	60	61
2	62	63
2	64	65
2	66	67
2	68	69
2	70	71
2	72	73
2	74	75
2	76	77
2	78	79
2	80	81
2	82	83
2	84	85
2	86	87
2	88	89
2	90	91
2	92	93
2	94	95
2	96	97
2	98	99
2	100	101
2	102	103
2	104	105
2	106	107
2	108	109
2	110	111
2	112	113
2	114	115
2	116	117
2	118	119
2	120	121
2	122	123
2	124	125
2	126	127

CELL_TYPES 64
 3 3 3 3 3 3 3 3 3 3 3 3 3 3 3 3 3 3 3 3 3 3 3 3 3 3 3 3 3 3 3 3 3 3 3 3 3 3 3 3 3 3 3 3 3 3 3 3 3 3 3 3 3 3 3 3 3 3 3 3 3 3 3 3
POINT_DATA 128
VECTORS displacement double
0 0 0
0.0135014 0 0
0.0135014 0 0
0.0265741 0 0
0.0265741 0 0
0.0392182 0 0
0.0392182 0 0
0.0514337 0 0
0.0514337 0 0
0.0632206 0 0
0.0632206 0 0
0.0745789 0 0
0.0745789 0 0
0.0855086 0 0
0.0855086 0 0
0.0960097 0 0
0.0960097 0 0
0.106082 0 0
0.106082 0 0
0.115726 0 0
0.115726 0 0
0.124941 0 0
0.124941 0 0
0.133728 0 0
0.133728 0 0
0.142086 0 0
0.142086 0 0
0.150015 0 0
0.150015 0 0
0.157516 0 0
0.157516 0 0
0.164588 0 0
0.164588 0 0
0.171232 0 0
0.171232 0 0
0.177446 0 0
0.177446 0 0
0.183233 0 0
0.183233 0 0
0.18859 0 0
0.18859 0 0
0.19352 0 0
0.19352 0 0
0.19802 0 0
0.19802 0 0
0.202092 0 0
0.202092 0 0
0.205735 0 0
0.205735 0 0
0.20895 0 0
0.20895 0 0
0.211736 0 0
0.211736 0 0
0.214093 0 0
0.214093 0 0
0.216022 0 0
0.216022 0 0
0.217522 0 0
0.217522 0 0
0.218594 0 0
0.218594 0 0
0.219237 0 0
0.219237 0 0
0.219451 0 0
0.219451 0 0
0.219237 0 0
0.219237 0 0
0.218594 0 0
0.218594 0 0
0.217522 0 0
0.217522 0 0
0.216022 0 0
0.216022 0 0
0.214093 0 0
0.214093 0 0
0.211736 0 0
0.211736 0 0
0.20895 0 0
0.20895 0 0
0.205735 0 0
0.205735 0 0
0.202092 0 0
0.202092 0 0
0.19802 0 0
0.19802 0 0
0.19352 0 0
0.19352 0 0
0.18859 0 0
0.18859 0 0
0.183233 0 0
0.183233 0 0
0.177446 0 0
0.177446 0 0
0.171232 0 0
0.171232 0 0
0.164588 0 0
0.164588 0 0
0.157516 0 0
0.157516 0 0
0.150015 0 0
0.150015 0 0
0.142086 0 0
0.142086 0 0
0.133728 0 0
0.133728 0 0
0.124941 0 0
0.124941 0 0
0.115726 0 0
0.115726 0 0
0.106082 0 0
0.106082 0 0
0.0960097 0 0
0.0960097 0 0
0.0855086 0 0
0.0855086 0 0
0.0745789 0 0
0.0745789 0 0
0.0632206 0 0
0.0632206 0 0
0.0514337 0 0
0.0514337 0 0
0.0392182 0 0
0.0392182 0 0
0.0265741 0 0
0.0265741 0 0
0.0135014 0 0
0.0135014 0 0
0 0 0
VECTORS velocity double
0 0 0
-0.00736709 0 0
-0.00736709 0 0
-0.0145003 0 0
-0.0145003 0 0
-0.0213995 0 0
-0.0213995 0 0
-0.0280649 0 0
-0.0280649 0 0
-0.0344965 0 0
-0.0344965 0 0
-0.0406941 0 0
-0.0406941 0 0
-0.0466579 0 0
-0.0466579 0 0
-0.0523878 0 0
-0.0523878 0 0
-0.0578838 0 0
-0.0578838 0 0
-0.063146 0 0
-0.063146 0 0
-0.0681742 0 0
-0.0681742 0 0
-0.0729686 0 0
-0.0729686 0 0
-0.0775292 0 0
-0.0775292 0 0
-0.0818558 0 0
-0.0818558 0 0
-0.0859486 0 0
-0.0859486 0 0
-0.0898075 0 0
-0.0898075 0 0
-0.0934325 0 0
-0.0934325 0 0
-0.0968236 0 0
-0.0968236 0 0
-0.0999809 0 0
-0.0999809 0 0
-0.102904 0 0
-0.102904 0 0
-0.105594 0 0
-0.105594 0 0
-0.10805 0 0
-0.10805 0 0
-0.110271 0 0
-0.110271 0 0
-0.112259 0 0
-0.112259 0 0
-0.114013 0 0
-0.114013 0 0
-0.115534 0 0
-0.115534 0 0
-0.11682 0 0
-0.11682 0 0
-0.117873 0 0
-0.117873 0 0
-0.118691 0 0
-0.118691 0 0
-0.119276 0 0
-0.119276 0 0
-0.119627 0 0
-0.119627 0 0
-0.119744 0 0
-0.119744 0 0
-0.119627 0 0
-0.119627 0 0
-0.119276 0 0
-0.119276 0 0
-0.118691 0 0
-0.118691 0 0
-0.117873 0 0
-0.117873 0 0
-0.11682 0 0
-0.11682 0 0
-0.115534 0 0
-0.115534 0 0
-0.114013 0 0
-0.114013 0 0
-0.112259 0 0
-0.112259 0 0
-0.110271 0 0
-0.110271 0 0
-0.10805 0 0
-0.10805 0 0
-0.105594 0 0
-0.105594 0 0
-0.102904 0 0
-0.102904 0 0
-0.0999809 0 0
-0.0999809 0 0
-0.0968236 0 0
-0.0968236 0 0
-0.0934325 0 0
-0.0934325 0 0
-0.0898075 0 0
-0.0898075 0 0
-0.0859486 0 0
-0.0859486 0 0
-0.0818558 0 0
-0.0818558 0 0
-0.0775292 0 0
-0.0775292 0 0
-0.0729686 0 0
-0.0729686 0 0
-0.0681742 0 0
-0.0681742 0 0
-0.063146 0 0
-0.063146 0 0
-0.0578838 0 0
-0.0578838 0 0
-0.0523878 0 0
-0.0523878 0 0
-0.0466579 0 0
-0.0466579 0 0
-0.0406941 0 0
-0.0406941 0 0
-0.0344965 0 0
-0.0344965 0 0
-0.0280649 0 0
-0.0280649 0 0
-0.0213995 0 0
-0.0213995 0 0
-0.0145003 0 0
-0.0145003 0 0
-0.00736709 0 0
-0.00736709 0 0
0 0 0
