# vtk DataFile Version 3.0
#This file was generated by the deal.II library on 2025/3/27 at 12:19:38
ASCII
DATASET UNSTRUCTURED_GRID

FIELD FieldData 1
TIME 1 1 double
1.88672
POINTS 64 double
0 0 0
0.03125 0 0
0.03125 0 0
0.0625 0 0
0.0625 0 0
0.09375 0 0
0.09375 0 0
0.125 0 0
0.125 0 0
0.15625 0 0
0.15625 0 0
0.1875 0 0
0.1875 0 0
0.21875 0 0
0.21875 0 0
0.25 0 0
0.25 0 0
0.28125 0 0
0.28125 0 0
0.3125 0 0
0.3125 0 0
0.34375 0 0
0.34375 0 0
0.375 0 0
0.375 0 0
0.40625 0 0
0.40625 0 0
0.4375 0 0
0.4375 0 0
0.46875 0 0
0.46875 0 0
0.5 0 0
0.5 0 0
0.53125 0 0
0.53125 0 0
0.5625 0 0
0.5625 0 0
0.59375 0 0
0.59375 0 0
0.625 0 0
0.625 0 0
0.65625 0 0
0.65625 0 0
0.6875 0 0
0.6875 0 0
0.71875 0 0
0.71875 0 0
0.75 0 0
0.75 0 0
0.78125 0 0
0.78125 0 0
0.8125 0 0
0.8125 0 0
0.84375 0 0
0.84375 0 0
0.875 0 0
0.875 0 0
0.90625 0 0
0.90625 0 0
0.9375 0 0
0.9375 0 0
0.96875 0 0
0.96875 0 0
1 0 0

CELLS 32 96
2	0	1
2	2	3
2	4	5
2	6	7
2	8	9
2	10	11
2	12	13
2	14	15
2	16	17
2	18	19
2	20	21
2	22	23
2	24	25
2	26	27
2	28	29
2	30	31
2	32	33
2	34	35
2	36	37
2	38	39
2	40	41
2	42	43
2	44	45
2	46	47
2	48	49
2	50	51
2	52	53
2	54	55
2	56	57
2	58	59
2	60	61
2	62	63

CELL_TYPES 32
 3 3 3 3 3 3 3 3 3 3 3 3 3 3 3 3 3 3 3 3 3 3 3 3 3 3 3 3 3 3 3 3
POINT_DATA 64
VECTORS displacement double
0 0 0
0.0940245 0 0
0.0940245 0 0
0.187144 0 0
0.187144 0 0
0.27846 0 0
0.27846 0 0
0.367095 0 0
0.367095 0 0
0.452195 0 0
0.452195 0 0
0.53294 0 0
0.53294 0 0
0.608552 0 0
0.608552 0 0
0.678303 0 0
0.678303 0 0
0.741523 0 0
0.741523 0 0
0.797601 0 0
0.797601 0 0
0.845997 0 0
0.845997 0 0
0.886246 0 0
0.886246 0 0
0.91796 0 0
0.91796 0 0
0.940834 0 0
0.940834 0 0
0.954647 0 0
0.954647 0 0
0.959266 0 0
0.959266 0 0
0.954647 0 0
0.954647 0 0
0.940834 0 0
0.940834 0 0
0.91796 0 0
0.91796 0 0
0.886246 0 0
0.886246 0 0
0.845997 0 0
0.845997 0 0
0.797601 0 0
0.797601 0 0
0.741523 0 0
0.741523 0 0
0.678303 0 0
0.678303 0 0
0.608552 0 0
0.608552 0 0
0.53294 0 0
0.53294 0 0
0.452195 0 0
0.452195 0 0
0.367095 0 0
0.367095 0 0
0.27846 0 0
0.27846 0 0
0.187144 0 0
0.187144 0 0
0.0940245 0 0
0.0940245 0 0
0 0 0
VECTORS velocity double
0 0 0
-0.029436 0 0
-0.029436 0 0
-0.0585886 0 0
-0.0585886 0 0
-0.0871769 0 0
-0.0871769 0 0
-0.114926 0 0
-0.114926 0 0
-0.141568 0 0
-0.141568 0 0
-0.166846 0 0
-0.166846 0 0
-0.190518 0 0
-0.190518 0 0
-0.212355 0 0
-0.212355 0 0
-0.232147 0 0
-0.232147 0 0
-0.249703 0 0
-0.249703 0 0
-0.264854 0 0
-0.264854 0 0
-0.277455 0 0
-0.277455 0 0
-0.287384 0 0
-0.287384 0 0
-0.294545 0 0
-0.294545 0 0
-0.298869 0 0
-0.298869 0 0
-0.300315 0 0
-0.300315 0 0
-0.298869 0 0
-0.298869 0 0
-0.294545 0 0
-0.294545 0 0
-0.287384 0 0
-0.287384 0 0
-0.277455 0 0
-0.277455 0 0
-0.264854 0 0
-0.264854 0 0
-0.249703 0 0
-0.249703 0 0
-0.232147 0 0
-0.232147 0 0
-0.212355 0 0
-0.212355 0 0
-0.190518 0 0
-0.190518 0 0
-0.166846 0 0
-0.166846 0 0
-0.141568 0 0
-0.141568 0 0
-0.114926 0 0
-0.114926 0 0
-0.0871769 0 0
-0.0871769 0 0
-0.0585886 0 0
-0.0585886 0 0
-0.029436 0 0
-0.029436 0 0
0 0 0
