# vtk DataFile Version 3.0
#This file was generated by the deal.II library on 2025/3/27 at 12:19:38
ASCII
DATASET UNSTRUCTURED_GRID

FIELD FieldData 1
TIME 1 1 double
1.8418
POINTS 64 double
0 0 0
0.03125 0 0
0.03125 0 0
0.0625 0 0
0.0625 0 0
0.09375 0 0
0.09375 0 0
0.125 0 0
0.125 0 0
0.15625 0 0
0.15625 0 0
0.1875 0 0
0.1875 0 0
0.21875 0 0
0.21875 0 0
0.25 0 0
0.25 0 0
0.28125 0 0
0.28125 0 0
0.3125 0 0
0.3125 0 0
0.34375 0 0
0.34375 0 0
0.375 0 0
0.375 0 0
0.40625 0 0
0.40625 0 0
0.4375 0 0
0.4375 0 0
0.46875 0 0
0.46875 0 0
0.5 0 0
0.5 0 0
0.53125 0 0
0.53125 0 0
0.5625 0 0
0.5625 0 0
0.59375 0 0
0.59375 0 0
0.625 0 0
0.625 0 0
0.65625 0 0
0.65625 0 0
0.6875 0 0
0.6875 0 0
0.71875 0 0
0.71875 0 0
0.75 0 0
0.75 0 0
0.78125 0 0
0.78125 0 0
0.8125 0 0
0.8125 0 0
0.84375 0 0
0.84375 0 0
0.875 0 0
0.875 0 0
0.90625 0 0
0.90625 0 0
0.9375 0 0
0.9375 0 0
0.96875 0 0
0.96875 0 0
1 0 0

CELLS 32 96
2	0	1
2	2	3
2	4	5
2	6	7
2	8	9
2	10	11
2	12	13
2	14	15
2	16	17
2	18	19
2	20	21
2	22	23
2	24	25
2	26	27
2	28	29
2	30	31
2	32	33
2	34	35
2	36	37
2	38	39
2	40	41
2	42	43
2	44	45
2	46	47
2	48	49
2	50	51
2	52	53
2	54	55
2	56	57
2	58	59
2	60	61
2	62	63

CELL_TYPES 32
 3 3 3 3 3 3 3 3 3 3 3 3 3 3 3 3 3 3 3 3 3 3 3 3 3 3 3 3 3 3 3 3
POINT_DATA 64
VECTORS displacement double
0 0 0
0.0952439 0 0
0.0952439 0 0
0.189571 0 0
0.189571 0 0
0.282072 0 0
0.282072 0 0
0.371856 0 0
0.371856 0 0
0.458059 0 0
0.458059 0 0
0.539851 0 0
0.539851 0 0
0.616444 0 0
0.616444 0 0
0.6871 0 0
0.6871 0 0
0.751139 0 0
0.751139 0 0
0.807945 0 0
0.807945 0 0
0.856969 0 0
0.856969 0 0
0.89774 0 0
0.89774 0 0
0.929865 0 0
0.929865 0 0
0.953036 0 0
0.953036 0 0
0.967028 0 0
0.967028 0 0
0.971707 0 0
0.971707 0 0
0.967028 0 0
0.967028 0 0
0.953036 0 0
0.953036 0 0
0.929865 0 0
0.929865 0 0
0.89774 0 0
0.89774 0 0
0.856969 0 0
0.856969 0 0
0.807945 0 0
0.807945 0 0
0.751139 0 0
0.751139 0 0
0.6871 0 0
0.6871 0 0
0.616444 0 0
0.616444 0 0
0.539851 0 0
0.539851 0 0
0.458059 0 0
0.458059 0 0
0.371856 0 0
0.371856 0 0
0.282072 0 0
0.282072 0 0
0.189571 0 0
0.189571 0 0
0.0952439 0 0
0.0952439 0 0
0 0 0
VECTORS velocity double
0 0 0
-0.0248487 0 0
-0.0248487 0 0
-0.0494582 0 0
-0.0494582 0 0
-0.0735913 0 0
-0.0735913 0 0
-0.0970157 0 0
-0.0970157 0 0
-0.119506 0 0
-0.119506 0 0
-0.140845 0 0
-0.140845 0 0
-0.160828 0 0
-0.160828 0 0
-0.179262 0 0
-0.179262 0 0
-0.195969 0 0
-0.195969 0 0
-0.210789 0 0
-0.210789 0 0
-0.22358 0 0
-0.22358 0 0
-0.234217 0 0
-0.234217 0 0
-0.242598 0 0
-0.242598 0 0
-0.248643 0 0
-0.248643 0 0
-0.252294 0 0
-0.252294 0 0
-0.253514 0 0
-0.253514 0 0
-0.252294 0 0
-0.252294 0 0
-0.248643 0 0
-0.248643 0 0
-0.242598 0 0
-0.242598 0 0
-0.234217 0 0
-0.234217 0 0
-0.22358 0 0
-0.22358 0 0
-0.210789 0 0
-0.210789 0 0
-0.195969 0 0
-0.195969 0 0
-0.179262 0 0
-0.179262 0 0
-0.160828 0 0
-0.160828 0 0
-0.140845 0 0
-0.140845 0 0
-0.119506 0 0
-0.119506 0 0
-0.0970157 0 0
-0.0970157 0 0
-0.0735913 0 0
-0.0735913 0 0
-0.0494582 0 0
-0.0494582 0 0
-0.0248487 0 0
-0.0248487 0 0
0 0 0
