# vtk DataFile Version 3.0
#This file was generated by the deal.II library on 2025/3/27 at 12:19:37
ASCII
DATASET UNSTRUCTURED_GRID

FIELD FieldData 1
TIME 1 1 double
0.439453
POINTS 64 double
0 0 0
0.03125 0 0
0.03125 0 0
0.0625 0 0
0.0625 0 0
0.09375 0 0
0.09375 0 0
0.125 0 0
0.125 0 0
0.15625 0 0
0.15625 0 0
0.1875 0 0
0.1875 0 0
0.21875 0 0
0.21875 0 0
0.25 0 0
0.25 0 0
0.28125 0 0
0.28125 0 0
0.3125 0 0
0.3125 0 0
0.34375 0 0
0.34375 0 0
0.375 0 0
0.375 0 0
0.40625 0 0
0.40625 0 0
0.4375 0 0
0.4375 0 0
0.46875 0 0
0.46875 0 0
0.5 0 0
0.5 0 0
0.53125 0 0
0.53125 0 0
0.5625 0 0
0.5625 0 0
0.59375 0 0
0.59375 0 0
0.625 0 0
0.625 0 0
0.65625 0 0
0.65625 0 0
0.6875 0 0
0.6875 0 0
0.71875 0 0
0.71875 0 0
0.75 0 0
0.75 0 0
0.78125 0 0
0.78125 0 0
0.8125 0 0
0.8125 0 0
0.84375 0 0
0.84375 0 0
0.875 0 0
0.875 0 0
0.90625 0 0
0.90625 0 0
0.9375 0 0
0.9375 0 0
0.96875 0 0
0.96875 0 0
1 0 0

CELLS 32 96
2	0	1
2	2	3
2	4	5
2	6	7
2	8	9
2	10	11
2	12	13
2	14	15
2	16	17
2	18	19
2	20	21
2	22	23
2	24	25
2	26	27
2	28	29
2	30	31
2	32	33
2	34	35
2	36	37
2	38	39
2	40	41
2	42	43
2	44	45
2	46	47
2	48	49
2	50	51
2	52	53
2	54	55
2	56	57
2	58	59
2	60	61
2	62	63

CELL_TYPES 32
 3 3 3 3 3 3 3 3 3 3 3 3 3 3 3 3 3 3 3 3 3 3 3 3 3 3 3 3 3 3 3 3
POINT_DATA 64
VECTORS displacement double
0 0 0
0.0418742 0 0
0.0418742 0 0
0.0833452 0 0
0.0833452 0 0
0.124013 0 0
0.124013 0 0
0.163487 0 0
0.163487 0 0
0.201387 0 0
0.201387 0 0
0.237347 0 0
0.237347 0 0
0.271021 0 0
0.271021 0 0
0.302085 0 0
0.302085 0 0
0.33024 0 0
0.33024 0 0
0.355215 0 0
0.355215 0 0
0.376768 0 0
0.376768 0 0
0.394694 0 0
0.394694 0 0
0.408818 0 0
0.408818 0 0
0.419004 0 0
0.419004 0 0
0.425156 0 0
0.425156 0 0
0.427213 0 0
0.427213 0 0
0.425156 0 0
0.425156 0 0
0.419004 0 0
0.419004 0 0
0.408818 0 0
0.408818 0 0
0.394694 0 0
0.394694 0 0
0.376768 0 0
0.376768 0 0
0.355215 0 0
0.355215 0 0
0.33024 0 0
0.33024 0 0
0.302085 0 0
0.302085 0 0
0.271021 0 0
0.271021 0 0
0.237347 0 0
0.237347 0 0
0.201387 0 0
0.201387 0 0
0.163487 0 0
0.163487 0 0
0.124013 0 0
0.124013 0 0
0.0833452 0 0
0.0833452 0 0
0.0418742 0 0
0.0418742 0 0
0 0 0
VECTORS velocity double
0 0 0
0.0858434 0 0
0.0858434 0 0
0.17086 0 0
0.17086 0 0
0.254231 0 0
0.254231 0 0
0.335154 0 0
0.335154 0 0
0.412849 0 0
0.412849 0 0
0.486568 0 0
0.486568 0 0
0.555601 0 0
0.555601 0 0
0.619284 0 0
0.619284 0 0
0.677002 0 0
0.677002 0 0
0.728201 0 0
0.728201 0 0
0.772386 0 0
0.772386 0 0
0.809133 0 0
0.809133 0 0
0.838088 0 0
0.838088 0 0
0.858971 0 0
0.858971 0 0
0.871583 0 0
0.871583 0 0
0.8758 0 0
0.8758 0 0
0.871583 0 0
0.871583 0 0
0.858971 0 0
0.858971 0 0
0.838088 0 0
0.838088 0 0
0.809133 0 0
0.809133 0 0
0.772386 0 0
0.772386 0 0
0.728201 0 0
0.728201 0 0
0.677002 0 0
0.677002 0 0
0.619284 0 0
0.619284 0 0
0.555601 0 0
0.555601 0 0
0.486568 0 0
0.486568 0 0
0.412849 0 0
0.412849 0 0
0.335154 0 0
0.335154 0 0
0.254231 0 0
0.254231 0 0
0.17086 0 0
0.17086 0 0
0.0858434 0 0
0.0858434 0 0
0 0 0
