# vtk DataFile Version 3.0
#This file was generated by the deal.II library on 2025/4/1 at 13:09:36
ASCII
DATASET UNSTRUCTURED_GRID

FIELD FieldData 1
TIME 1 1 double
3.83594
POINTS 512 double
0 0 0
0.00390625 0 0
0.00390625 0 0
0.0078125 0 0
0.0078125 0 0
0.0117188 0 0
0.0117188 0 0
0.015625 0 0
0.015625 0 0
0.0195312 0 0
0.0195312 0 0
0.0234375 0 0
0.0234375 0 0
0.0273438 0 0
0.0273438 0 0
0.03125 0 0
0.03125 0 0
0.0351562 0 0
0.0351562 0 0
0.0390625 0 0
0.0390625 0 0
0.0429688 0 0
0.0429688 0 0
0.046875 0 0
0.046875 0 0
0.0507812 0 0
0.0507812 0 0
0.0546875 0 0
0.0546875 0 0
0.0585938 0 0
0.0585938 0 0
0.0625 0 0
0.0625 0 0
0.0664062 0 0
0.0664062 0 0
0.0703125 0 0
0.0703125 0 0
0.0742188 0 0
0.0742188 0 0
0.078125 0 0
0.078125 0 0
0.0820312 0 0
0.0820312 0 0
0.0859375 0 0
0.0859375 0 0
0.0898438 0 0
0.0898438 0 0
0.09375 0 0
0.09375 0 0
0.0976562 0 0
0.0976562 0 0
0.101562 0 0
0.101562 0 0
0.105469 0 0
0.105469 0 0
0.109375 0 0
0.109375 0 0
0.113281 0 0
0.113281 0 0
0.117188 0 0
0.117188 0 0
0.121094 0 0
0.121094 0 0
0.125 0 0
0.125 0 0
0.128906 0 0
0.128906 0 0
0.132812 0 0
0.132812 0 0
0.136719 0 0
0.136719 0 0
0.140625 0 0
0.140625 0 0
0.144531 0 0
0.144531 0 0
0.148438 0 0
0.148438 0 0
0.152344 0 0
0.152344 0 0
0.15625 0 0
0.15625 0 0
0.160156 0 0
0.160156 0 0
0.164062 0 0
0.164062 0 0
0.167969 0 0
0.167969 0 0
0.171875 0 0
0.171875 0 0
0.175781 0 0
0.175781 0 0
0.179688 0 0
0.179688 0 0
0.183594 0 0
0.183594 0 0
0.1875 0 0
0.1875 0 0
0.191406 0 0
0.191406 0 0
0.195312 0 0
0.195312 0 0
0.199219 0 0
0.199219 0 0
0.203125 0 0
0.203125 0 0
0.207031 0 0
0.207031 0 0
0.210938 0 0
0.210938 0 0
0.214844 0 0
0.214844 0 0
0.21875 0 0
0.21875 0 0
0.222656 0 0
0.222656 0 0
0.226562 0 0
0.226562 0 0
0.230469 0 0
0.230469 0 0
0.234375 0 0
0.234375 0 0
0.238281 0 0
0.238281 0 0
0.242188 0 0
0.242188 0 0
0.246094 0 0
0.246094 0 0
0.25 0 0
0.25 0 0
0.253906 0 0
0.253906 0 0
0.257812 0 0
0.257812 0 0
0.261719 0 0
0.261719 0 0
0.265625 0 0
0.265625 0 0
0.269531 0 0
0.269531 0 0
0.273438 0 0
0.273438 0 0
0.277344 0 0
0.277344 0 0
0.28125 0 0
0.28125 0 0
0.285156 0 0
0.285156 0 0
0.289062 0 0
0.289062 0 0
0.292969 0 0
0.292969 0 0
0.296875 0 0
0.296875 0 0
0.300781 0 0
0.300781 0 0
0.304688 0 0
0.304688 0 0
0.308594 0 0
0.308594 0 0
0.3125 0 0
0.3125 0 0
0.316406 0 0
0.316406 0 0
0.320312 0 0
0.320312 0 0
0.324219 0 0
0.324219 0 0
0.328125 0 0
0.328125 0 0
0.332031 0 0
0.332031 0 0
0.335938 0 0
0.335938 0 0
0.339844 0 0
0.339844 0 0
0.34375 0 0
0.34375 0 0
0.347656 0 0
0.347656 0 0
0.351562 0 0
0.351562 0 0
0.355469 0 0
0.355469 0 0
0.359375 0 0
0.359375 0 0
0.363281 0 0
0.363281 0 0
0.367188 0 0
0.367188 0 0
0.371094 0 0
0.371094 0 0
0.375 0 0
0.375 0 0
0.378906 0 0
0.378906 0 0
0.382812 0 0
0.382812 0 0
0.386719 0 0
0.386719 0 0
0.390625 0 0
0.390625 0 0
0.394531 0 0
0.394531 0 0
0.398438 0 0
0.398438 0 0
0.402344 0 0
0.402344 0 0
0.40625 0 0
0.40625 0 0
0.410156 0 0
0.410156 0 0
0.414062 0 0
0.414062 0 0
0.417969 0 0
0.417969 0 0
0.421875 0 0
0.421875 0 0
0.425781 0 0
0.425781 0 0
0.429688 0 0
0.429688 0 0
0.433594 0 0
0.433594 0 0
0.4375 0 0
0.4375 0 0
0.441406 0 0
0.441406 0 0
0.445312 0 0
0.445312 0 0
0.449219 0 0
0.449219 0 0
0.453125 0 0
0.453125 0 0
0.457031 0 0
0.457031 0 0
0.460938 0 0
0.460938 0 0
0.464844 0 0
0.464844 0 0
0.46875 0 0
0.46875 0 0
0.472656 0 0
0.472656 0 0
0.476562 0 0
0.476562 0 0
0.480469 0 0
0.480469 0 0
0.484375 0 0
0.484375 0 0
0.488281 0 0
0.488281 0 0
0.492188 0 0
0.492188 0 0
0.496094 0 0
0.496094 0 0
0.5 0 0
0.5 0 0
0.503906 0 0
0.503906 0 0
0.507812 0 0
0.507812 0 0
0.511719 0 0
0.511719 0 0
0.515625 0 0
0.515625 0 0
0.519531 0 0
0.519531 0 0
0.523438 0 0
0.523438 0 0
0.527344 0 0
0.527344 0 0
0.53125 0 0
0.53125 0 0
0.535156 0 0
0.535156 0 0
0.539062 0 0
0.539062 0 0
0.542969 0 0
0.542969 0 0
0.546875 0 0
0.546875 0 0
0.550781 0 0
0.550781 0 0
0.554688 0 0
0.554688 0 0
0.558594 0 0
0.558594 0 0
0.5625 0 0
0.5625 0 0
0.566406 0 0
0.566406 0 0
0.570312 0 0
0.570312 0 0
0.574219 0 0
0.574219 0 0
0.578125 0 0
0.578125 0 0
0.582031 0 0
0.582031 0 0
0.585938 0 0
0.585938 0 0
0.589844 0 0
0.589844 0 0
0.59375 0 0
0.59375 0 0
0.597656 0 0
0.597656 0 0
0.601562 0 0
0.601562 0 0
0.605469 0 0
0.605469 0 0
0.609375 0 0
0.609375 0 0
0.613281 0 0
0.613281 0 0
0.617188 0 0
0.617188 0 0
0.621094 0 0
0.621094 0 0
0.625 0 0
0.625 0 0
0.628906 0 0
0.628906 0 0
0.632812 0 0
0.632812 0 0
0.636719 0 0
0.636719 0 0
0.640625 0 0
0.640625 0 0
0.644531 0 0
0.644531 0 0
0.648438 0 0
0.648438 0 0
0.652344 0 0
0.652344 0 0
0.65625 0 0
0.65625 0 0
0.660156 0 0
0.660156 0 0
0.664062 0 0
0.664062 0 0
0.667969 0 0
0.667969 0 0
0.671875 0 0
0.671875 0 0
0.675781 0 0
0.675781 0 0
0.679688 0 0
0.679688 0 0
0.683594 0 0
0.683594 0 0
0.6875 0 0
0.6875 0 0
0.691406 0 0
0.691406 0 0
0.695312 0 0
0.695312 0 0
0.699219 0 0
0.699219 0 0
0.703125 0 0
0.703125 0 0
0.707031 0 0
0.707031 0 0
0.710938 0 0
0.710938 0 0
0.714844 0 0
0.714844 0 0
0.71875 0 0
0.71875 0 0
0.722656 0 0
0.722656 0 0
0.726562 0 0
0.726562 0 0
0.730469 0 0
0.730469 0 0
0.734375 0 0
0.734375 0 0
0.738281 0 0
0.738281 0 0
0.742188 0 0
0.742188 0 0
0.746094 0 0
0.746094 0 0
0.75 0 0
0.75 0 0
0.753906 0 0
0.753906 0 0
0.757812 0 0
0.757812 0 0
0.761719 0 0
0.761719 0 0
0.765625 0 0
0.765625 0 0
0.769531 0 0
0.769531 0 0
0.773438 0 0
0.773438 0 0
0.777344 0 0
0.777344 0 0
0.78125 0 0
0.78125 0 0
0.785156 0 0
0.785156 0 0
0.789062 0 0
0.789062 0 0
0.792969 0 0
0.792969 0 0
0.796875 0 0
0.796875 0 0
0.800781 0 0
0.800781 0 0
0.804688 0 0
0.804688 0 0
0.808594 0 0
0.808594 0 0
0.8125 0 0
0.8125 0 0
0.816406 0 0
0.816406 0 0
0.820312 0 0
0.820312 0 0
0.824219 0 0
0.824219 0 0
0.828125 0 0
0.828125 0 0
0.832031 0 0
0.832031 0 0
0.835938 0 0
0.835938 0 0
0.839844 0 0
0.839844 0 0
0.84375 0 0
0.84375 0 0
0.847656 0 0
0.847656 0 0
0.851562 0 0
0.851562 0 0
0.855469 0 0
0.855469 0 0
0.859375 0 0
0.859375 0 0
0.863281 0 0
0.863281 0 0
0.867188 0 0
0.867188 0 0
0.871094 0 0
0.871094 0 0
0.875 0 0
0.875 0 0
0.878906 0 0
0.878906 0 0
0.882812 0 0
0.882812 0 0
0.886719 0 0
0.886719 0 0
0.890625 0 0
0.890625 0 0
0.894531 0 0
0.894531 0 0
0.898438 0 0
0.898438 0 0
0.902344 0 0
0.902344 0 0
0.90625 0 0
0.90625 0 0
0.910156 0 0
0.910156 0 0
0.914062 0 0
0.914062 0 0
0.917969 0 0
0.917969 0 0
0.921875 0 0
0.921875 0 0
0.925781 0 0
0.925781 0 0
0.929688 0 0
0.929688 0 0
0.933594 0 0
0.933594 0 0
0.9375 0 0
0.9375 0 0
0.941406 0 0
0.941406 0 0
0.945312 0 0
0.945312 0 0
0.949219 0 0
0.949219 0 0
0.953125 0 0
0.953125 0 0
0.957031 0 0
0.957031 0 0
0.960938 0 0
0.960938 0 0
0.964844 0 0
0.964844 0 0
0.96875 0 0
0.96875 0 0
0.972656 0 0
0.972656 0 0
0.976562 0 0
0.976562 0 0
0.980469 0 0
0.980469 0 0
0.984375 0 0
0.984375 0 0
0.988281 0 0
0.988281 0 0
0.992188 0 0
0.992188 0 0
0.996094 0 0
0.996094 0 0
1 0 0

CELLS 256 768
2	0	1
2	2	3
2	4	5
2	6	7
2	8	9
2	10	11
2	12	13
2	14	15
2	16	17
2	18	19
2	20	21
2	22	23
2	24	25
2	26	27
2	28	29
2	30	31
2	32	33
2	34	35
2	36	37
2	38	39
2	40	41
2	42	43
2	44	45
2	46	47
2	48	49
2	50	51
2	52	53
2	54	55
2	56	57
2	58	59
2	60	61
2	62	63
2	64	65
2	66	67
2	68	69
2	70	71
2	72	73
2	74	75
2	76	77
2	78	79
2	80	81
2	82	83
2	84	85
2	86	87
2	88	89
2	90	91
2	92	93
2	94	95
2	96	97
2	98	99
2	100	101
2	102	103
2	104	105
2	106	107
2	108	109
2	110	111
2	112	113
2	114	115
2	116	117
2	118	119
2	120	121
2	122	123
2	124	125
2	126	127
2	128	129
2	130	131
2	132	133
2	134	135
2	136	137
2	138	139
2	140	141
2	142	143
2	144	145
2	146	147
2	148	149
2	150	151
2	152	153
2	154	155
2	156	157
2	158	159
2	160	161
2	162	163
2	164	165
2	166	167
2	168	169
2	170	171
2	172	173
2	174	175
2	176	177
2	178	179
2	180	181
2	182	183
2	184	185
2	186	187
2	188	189
2	190	191
2	192	193
2	194	195
2	196	197
2	198	199
2	200	201
2	202	203
2	204	205
2	206	207
2	208	209
2	210	211
2	212	213
2	214	215
2	216	217
2	218	219
2	220	221
2	222	223
2	224	225
2	226	227
2	228	229
2	230	231
2	232	233
2	234	235
2	236	237
2	238	239
2	240	241
2	242	243
2	244	245
2	246	247
2	248	249
2	250	251
2	252	253
2	254	255
2	256	257
2	258	259
2	260	261
2	262	263
2	264	265
2	266	267
2	268	269
2	270	271
2	272	273
2	274	275
2	276	277
2	278	279
2	280	281
2	282	283
2	284	285
2	286	287
2	288	289
2	290	291
2	292	293
2	294	295
2	296	297
2	298	299
2	300	301
2	302	303
2	304	305
2	306	307
2	308	309
2	310	311
2	312	313
2	314	315
2	316	317
2	318	319
2	320	321
2	322	323
2	324	325
2	326	327
2	328	329
2	330	331
2	332	333
2	334	335
2	336	337
2	338	339
2	340	341
2	342	343
2	344	345
2	346	347
2	348	349
2	350	351
2	352	353
2	354	355
2	356	357
2	358	359
2	360	361
2	362	363
2	364	365
2	366	367
2	368	369
2	370	371
2	372	373
2	374	375
2	376	377
2	378	379
2	380	381
2	382	383
2	384	385
2	386	387
2	388	389
2	390	391
2	392	393
2	394	395
2	396	397
2	398	399
2	400	401
2	402	403
2	404	405
2	406	407
2	408	409
2	410	411
2	412	413
2	414	415
2	416	417
2	418	419
2	420	421
2	422	423
2	424	425
2	426	427
2	428	429
2	430	431
2	432	433
2	434	435
2	436	437
2	438	439
2	440	441
2	442	443
2	444	445
2	446	447
2	448	449
2	450	451
2	452	453
2	454	455
2	456	457
2	458	459
2	460	461
2	462	463
2	464	465
2	466	467
2	468	469
2	470	471
2	472	473
2	474	475
2	476	477
2	478	479
2	480	481
2	482	483
2	484	485
2	486	487
2	488	489
2	490	491
2	492	493
2	494	495
2	496	497
2	498	499
2	500	501
2	502	503
2	504	505
2	506	507
2	508	509
2	510	511

CELL_TYPES 256
 3 3 3 3 3 3 3 3 3 3 3 3 3 3 3 3 3 3 3 3 3 3 3 3 3 3 3 3 3 3 3 3 3 3 3 3 3 3 3 3 3 3 3 3 3 3 3 3 3 3 3 3 3 3 3 3 3 3 3 3 3 3 3 3 3 3 3 3 3 3 3 3 3 3 3 3 3 3 3 3 3 3 3 3 3 3 3 3 3 3 3 3 3 3 3 3 3 3 3 3 3 3 3 3 3 3 3 3 3 3 3 3 3 3 3 3 3 3 3 3 3 3 3 3 3 3 3 3 3 3 3 3 3 3 3 3 3 3 3 3 3 3 3 3 3 3 3 3 3 3 3 3 3 3 3 3 3 3 3 3 3 3 3 3 3 3 3 3 3 3 3 3 3 3 3 3 3 3 3 3 3 3 3 3 3 3 3 3 3 3 3 3 3 3 3 3 3 3 3 3 3 3 3 3 3 3 3 3 3 3 3 3 3 3 3 3 3 3 3 3 3 3 3 3 3 3 3 3 3 3 3 3 3 3 3 3 3 3 3 3 3 3 3 3 3 3 3 3 3 3 3 3 3 3 3 3
POINT_DATA 512
VECTORS displacement double
0 0 0
-0.00248979 0 0
-0.00248979 0 0
-0.00496004 0 0
-0.00496004 0 0
-0.00741077 0 0
-0.00741077 0 0
-0.00984197 0 0
-0.00984197 0 0
-0.0122536 0 0
-0.0122536 0 0
-0.0146458 0 0
-0.0146458 0 0
-0.0170184 0 0
-0.0170184 0 0
-0.0193715 0 0
-0.0193715 0 0
-0.0217051 0 0
-0.0217051 0 0
-0.0240191 0 0
-0.0240191 0 0
-0.0263136 0 0
-0.0263136 0 0
-0.0285886 0 0
-0.0285886 0 0
-0.030844 0 0
-0.030844 0 0
-0.03308 0 0
-0.03308 0 0
-0.0352964 0 0
-0.0352964 0 0
-0.0374932 0 0
-0.0374932 0 0
-0.0396706 0 0
-0.0396706 0 0
-0.0418284 0 0
-0.0418284 0 0
-0.0439667 0 0
-0.0439667 0 0
-0.0460854 0 0
-0.0460854 0 0
-0.0481847 0 0
-0.0481847 0 0
-0.0502644 0 0
-0.0502644 0 0
-0.0523245 0 0
-0.0523245 0 0
-0.0543652 0 0
-0.0543652 0 0
-0.0563863 0 0
-0.0563863 0 0
-0.0583879 0 0
-0.0583879 0 0
-0.06037 0 0
-0.06037 0 0
-0.0623325 0 0
-0.0623325 0 0
-0.0642755 0 0
-0.0642755 0 0
-0.066199 0 0
-0.066199 0 0
-0.0681029 0 0
-0.0681029 0 0
-0.0699874 0 0
-0.0699874 0 0
-0.0718523 0 0
-0.0718523 0 0
-0.0736976 0 0
-0.0736976 0 0
-0.0755235 0 0
-0.0755235 0 0
-0.0773298 0 0
-0.0773298 0 0
-0.0791166 0 0
-0.0791166 0 0
-0.0808838 0 0
-0.0808838 0 0
-0.0826315 0 0
-0.0826315 0 0
-0.0843598 0 0
-0.0843598 0 0
-0.0860684 0 0
-0.0860684 0 0
-0.0877576 0 0
-0.0877576 0 0
-0.0894272 0 0
-0.0894272 0 0
-0.0910773 0 0
-0.0910773 0 0
-0.0927078 0 0
-0.0927078 0 0
-0.0943189 0 0
-0.0943189 0 0
-0.0959104 0 0
-0.0959104 0 0
-0.0974824 0 0
-0.0974824 0 0
-0.0990348 0 0
-0.0990348 0 0
-0.100568 0 0
-0.100568 0 0
-0.102081 0 0
-0.102081 0 0
-0.103575 0 0
-0.103575 0 0
-0.105049 0 0
-0.105049 0 0
-0.106504 0 0
-0.106504 0 0
-0.107939 0 0
-0.107939 0 0
-0.109355 0 0
-0.109355 0 0
-0.110751 0 0
-0.110751 0 0
-0.112128 0 0
-0.112128 0 0
-0.113485 0 0
-0.113485 0 0
-0.114823 0 0
-0.114823 0 0
-0.116141 0 0
-0.116141 0 0
-0.11744 0 0
-0.11744 0 0
-0.118719 0 0
-0.118719 0 0
-0.119978 0 0
-0.119978 0 0
-0.121218 0 0
-0.121218 0 0
-0.122439 0 0
-0.122439 0 0
-0.12364 0 0
-0.12364 0 0
-0.124821 0 0
-0.124821 0 0
-0.125983 0 0
-0.125983 0 0
-0.127125 0 0
-0.127125 0 0
-0.128248 0 0
-0.128248 0 0
-0.129352 0 0
-0.129352 0 0
-0.130435 0 0
-0.130435 0 0
-0.1315 0 0
-0.1315 0 0
-0.132544 0 0
-0.132544 0 0
-0.13357 0 0
-0.13357 0 0
-0.134575 0 0
-0.134575 0 0
-0.135561 0 0
-0.135561 0 0
-0.136528 0 0
-0.136528 0 0
-0.137475 0 0
-0.137475 0 0
-0.138403 0 0
-0.138403 0 0
-0.139311 0 0
-0.139311 0 0
-0.140199 0 0
-0.140199 0 0
-0.141068 0 0
-0.141068 0 0
-0.141918 0 0
-0.141918 0 0
-0.142748 0 0
-0.142748 0 0
-0.143558 0 0
-0.143558 0 0
-0.144349 0 0
-0.144349 0 0
-0.14512 0 0
-0.14512 0 0
-0.145872 0 0
-0.145872 0 0
-0.146604 0 0
-0.146604 0 0
-0.147317 0 0
-0.147317 0 0
-0.14801 0 0
-0.14801 0 0
-0.148684 0 0
-0.148684 0 0
-0.149338 0 0
-0.149338 0 0
-0.149973 0 0
-0.149973 0 0
-0.150588 0 0
-0.150588 0 0
-0.151184 0 0
-0.151184 0 0
-0.15176 0 0
-0.15176 0 0
-0.152316 0 0
-0.152316 0 0
-0.152853 0 0
-0.152853 0 0
-0.153371 0 0
-0.153371 0 0
-0.153869 0 0
-0.153869 0 0
-0.154347 0 0
-0.154347 0 0
-0.154806 0 0
-0.154806 0 0
-0.155245 0 0
-0.155245 0 0
-0.155665 0 0
-0.155665 0 0
-0.156065 0 0
-0.156065 0 0
-0.156446 0 0
-0.156446 0 0
-0.156807 0 0
-0.156807 0 0
-0.157149 0 0
-0.157149 0 0
-0.157471 0 0
-0.157471 0 0
-0.157774 0 0
-0.157774 0 0
-0.158057 0 0
-0.158057 0 0
-0.158321 0 0
-0.158321 0 0
-0.158565 0 0
-0.158565 0 0
-0.15879 0 0
-0.15879 0 0
-0.158995 0 0
-0.158995 0 0
-0.15918 0 0
-0.15918 0 0
-0.159346 0 0
-0.159346 0 0
-0.159493 0 0
-0.159493 0 0
-0.159619 0 0
-0.159619 0 0
-0.159727 0 0
-0.159727 0 0
-0.159815 0 0
-0.159815 0 0
-0.159883 0 0
-0.159883 0 0
-0.159932 0 0
-0.159932 0 0
-0.159961 0 0
-0.159961 0 0
-0.159971 0 0
-0.159971 0 0
-0.159961 0 0
-0.159961 0 0
-0.159932 0 0
-0.159932 0 0
-0.159883 0 0
-0.159883 0 0
-0.159815 0 0
-0.159815 0 0
-0.159727 0 0
-0.159727 0 0
-0.159619 0 0
-0.159619 0 0
-0.159493 0 0
-0.159493 0 0
-0.159346 0 0
-0.159346 0 0
-0.15918 0 0
-0.15918 0 0
-0.158995 0 0
-0.158995 0 0
-0.15879 0 0
-0.15879 0 0
-0.158565 0 0
-0.158565 0 0
-0.158321 0 0
-0.158321 0 0
-0.158057 0 0
-0.158057 0 0
-0.157774 0 0
-0.157774 0 0
-0.157471 0 0
-0.157471 0 0
-0.157149 0 0
-0.157149 0 0
-0.156807 0 0
-0.156807 0 0
-0.156446 0 0
-0.156446 0 0
-0.156065 0 0
-0.156065 0 0
-0.155665 0 0
-0.155665 0 0
-0.155245 0 0
-0.155245 0 0
-0.154806 0 0
-0.154806 0 0
-0.154347 0 0
-0.154347 0 0
-0.153869 0 0
-0.153869 0 0
-0.153371 0 0
-0.153371 0 0
-0.152853 0 0
-0.152853 0 0
-0.152316 0 0
-0.152316 0 0
-0.15176 0 0
-0.15176 0 0
-0.151184 0 0
-0.151184 0 0
-0.150588 0 0
-0.150588 0 0
-0.149973 0 0
-0.149973 0 0
-0.149338 0 0
-0.149338 0 0
-0.148684 0 0
-0.148684 0 0
-0.14801 0 0
-0.14801 0 0
-0.147317 0 0
-0.147317 0 0
-0.146604 0 0
-0.146604 0 0
-0.145872 0 0
-0.145872 0 0
-0.14512 0 0
-0.14512 0 0
-0.144349 0 0
-0.144349 0 0
-0.143558 0 0
-0.143558 0 0
-0.142748 0 0
-0.142748 0 0
-0.141918 0 0
-0.141918 0 0
-0.141068 0 0
-0.141068 0 0
-0.140199 0 0
-0.140199 0 0
-0.139311 0 0
-0.139311 0 0
-0.138403 0 0
-0.138403 0 0
-0.137475 0 0
-0.137475 0 0
-0.136528 0 0
-0.136528 0 0
-0.135561 0 0
-0.135561 0 0
-0.134575 0 0
-0.134575 0 0
-0.13357 0 0
-0.13357 0 0
-0.132544 0 0
-0.132544 0 0
-0.1315 0 0
-0.1315 0 0
-0.130435 0 0
-0.130435 0 0
-0.129352 0 0
-0.129352 0 0
-0.128248 0 0
-0.128248 0 0
-0.127125 0 0
-0.127125 0 0
-0.125983 0 0
-0.125983 0 0
-0.124821 0 0
-0.124821 0 0
-0.12364 0 0
-0.12364 0 0
-0.122439 0 0
-0.122439 0 0
-0.121218 0 0
-0.121218 0 0
-0.119978 0 0
-0.119978 0 0
-0.118719 0 0
-0.118719 0 0
-0.11744 0 0
-0.11744 0 0
-0.116141 0 0
-0.116141 0 0
-0.114823 0 0
-0.114823 0 0
-0.113485 0 0
-0.113485 0 0
-0.112128 0 0
-0.112128 0 0
-0.110751 0 0
-0.110751 0 0
-0.109355 0 0
-0.109355 0 0
-0.107939 0 0
-0.107939 0 0
-0.106504 0 0
-0.106504 0 0
-0.105049 0 0
-0.105049 0 0
-0.103575 0 0
-0.103575 0 0
-0.102081 0 0
-0.102081 0 0
-0.100568 0 0
-0.100568 0 0
-0.0990348 0 0
-0.0990348 0 0
-0.0974824 0 0
-0.0974824 0 0
-0.0959104 0 0
-0.0959104 0 0
-0.0943189 0 0
-0.0943189 0 0
-0.0927078 0 0
-0.0927078 0 0
-0.0910773 0 0
-0.0910773 0 0
-0.0894272 0 0
-0.0894272 0 0
-0.0877576 0 0
-0.0877576 0 0
-0.0860684 0 0
-0.0860684 0 0
-0.0843598 0 0
-0.0843598 0 0
-0.0826315 0 0
-0.0826315 0 0
-0.0808838 0 0
-0.0808838 0 0
-0.0791166 0 0
-0.0791166 0 0
-0.0773298 0 0
-0.0773298 0 0
-0.0755235 0 0
-0.0755235 0 0
-0.0736976 0 0
-0.0736976 0 0
-0.0718523 0 0
-0.0718523 0 0
-0.0699874 0 0
-0.0699874 0 0
-0.0681029 0 0
-0.0681029 0 0
-0.066199 0 0
-0.066199 0 0
-0.0642755 0 0
-0.0642755 0 0
-0.0623325 0 0
-0.0623325 0 0
-0.06037 0 0
-0.06037 0 0
-0.0583879 0 0
-0.0583879 0 0
-0.0563863 0 0
-0.0563863 0 0
-0.0543652 0 0
-0.0543652 0 0
-0.0523245 0 0
-0.0523245 0 0
-0.0502644 0 0
-0.0502644 0 0
-0.0481847 0 0
-0.0481847 0 0
-0.0460854 0 0
-0.0460854 0 0
-0.0439667 0 0
-0.0439667 0 0
-0.0418284 0 0
-0.0418284 0 0
-0.0396706 0 0
-0.0396706 0 0
-0.0374932 0 0
-0.0374932 0 0
-0.0352964 0 0
-0.0352964 0 0
-0.03308 0 0
-0.03308 0 0
-0.030844 0 0
-0.030844 0 0
-0.0285886 0 0
-0.0285886 0 0
-0.0263136 0 0
-0.0263136 0 0
-0.0240191 0 0
-0.0240191 0 0
-0.0217051 0 0
-0.0217051 0 0
-0.0193715 0 0
-0.0193715 0 0
-0.0170184 0 0
-0.0170184 0 0
-0.0146458 0 0
-0.0146458 0 0
-0.0122536 0 0
-0.0122536 0 0
-0.00984197 0 0
-0.00984197 0 0
-0.00741077 0 0
-0.00741077 0 0
-0.00496004 0 0
-0.00496004 0 0
-0.00248979 0 0
-0.00248979 0 0
0 0 0
VECTORS velocity double
0 0 0
-0.00299015 0 0
-0.00299015 0 0
-0.00595684 0 0
-0.00595684 0 0
-0.00890008 0 0
-0.00890008 0 0
-0.0118199 0 0
-0.0118199 0 0
-0.0147162 0 0
-0.0147162 0 0
-0.0175891 0 0
-0.0175891 0 0
-0.0204385 0 0
-0.0204385 0 0
-0.0232645 0 0
-0.0232645 0 0
-0.026067 0 0
-0.026067 0 0
-0.0288461 0 0
-0.0288461 0 0
-0.0316018 0 0
-0.0316018 0 0
-0.0343339 0 0
-0.0343339 0 0
-0.0370426 0 0
-0.0370426 0 0
-0.0397279 0 0
-0.0397279 0 0
-0.0423897 0 0
-0.0423897 0 0
-0.0450281 0 0
-0.0450281 0 0
-0.0476431 0 0
-0.0476431 0 0
-0.0502346 0 0
-0.0502346 0 0
-0.0528026 0 0
-0.0528026 0 0
-0.0553472 0 0
-0.0553472 0 0
-0.0578684 0 0
-0.0578684 0 0
-0.060366 0 0
-0.060366 0 0
-0.0628403 0 0
-0.0628403 0 0
-0.065291 0 0
-0.065291 0 0
-0.0677184 0 0
-0.0677184 0 0
-0.0701222 0 0
-0.0701222 0 0
-0.0725026 0 0
-0.0725026 0 0
-0.0748596 0 0
-0.0748596 0 0
-0.0771931 0 0
-0.0771931 0 0
-0.0795032 0 0
-0.0795032 0 0
-0.0817898 0 0
-0.0817898 0 0
-0.084053 0 0
-0.084053 0 0
-0.0862927 0 0
-0.0862927 0 0
-0.0885089 0 0
-0.0885089 0 0
-0.0907017 0 0
-0.0907017 0 0
-0.0928711 0 0
-0.0928711 0 0
-0.095017 0 0
-0.095017 0 0
-0.0971394 0 0
-0.0971394 0 0
-0.0992384 0 0
-0.0992384 0 0
-0.101314 0 0
-0.101314 0 0
-0.103366 0 0
-0.103366 0 0
-0.105395 0 0
-0.105395 0 0
-0.1074 0 0
-0.1074 0 0
-0.109382 0 0
-0.109382 0 0
-0.11134 0 0
-0.11134 0 0
-0.113275 0 0
-0.113275 0 0
-0.115186 0 0
-0.115186 0 0
-0.117074 0 0
-0.117074 0 0
-0.118938 0 0
-0.118938 0 0
-0.120779 0 0
-0.120779 0 0
-0.122597 0 0
-0.122597 0 0
-0.124391 0 0
-0.124391 0 0
-0.126162 0 0
-0.126162 0 0
-0.127909 0 0
-0.127909 0 0
-0.129633 0 0
-0.129633 0 0
-0.131333 0 0
-0.131333 0 0
-0.13301 0 0
-0.13301 0 0
-0.134663 0 0
-0.134663 0 0
-0.136293 0 0
-0.136293 0 0
-0.137899 0 0
-0.137899 0 0
-0.139482 0 0
-0.139482 0 0
-0.141042 0 0
-0.141042 0 0
-0.142578 0 0
-0.142578 0 0
-0.144091 0 0
-0.144091 0 0
-0.14558 0 0
-0.14558 0 0
-0.147046 0 0
-0.147046 0 0
-0.148488 0 0
-0.148488 0 0
-0.149907 0 0
-0.149907 0 0
-0.151302 0 0
-0.151302 0 0
-0.152674 0 0
-0.152674 0 0
-0.154023 0 0
-0.154023 0 0
-0.155348 0 0
-0.155348 0 0
-0.156649 0 0
-0.156649 0 0
-0.157928 0 0
-0.157928 0 0
-0.159182 0 0
-0.159182 0 0
-0.160413 0 0
-0.160413 0 0
-0.161621 0 0
-0.161621 0 0
-0.162806 0 0
-0.162806 0 0
-0.163966 0 0
-0.163966 0 0
-0.165104 0 0
-0.165104 0 0
-0.166218 0 0
-0.166218 0 0
-0.167308 0 0
-0.167308 0 0
-0.168375 0 0
-0.168375 0 0
-0.169419 0 0
-0.169419 0 0
-0.170439 0 0
-0.170439 0 0
-0.171436 0 0
-0.171436 0 0
-0.172409 0 0
-0.172409 0 0
-0.173359 0 0
-0.173359 0 0
-0.174285 0 0
-0.174285 0 0
-0.175188 0 0
-0.175188 0 0
-0.176068 0 0
-0.176068 0 0
-0.176924 0 0
-0.176924 0 0
-0.177756 0 0
-0.177756 0 0
-0.178565 0 0
-0.178565 0 0
-0.179351 0 0
-0.179351 0 0
-0.180113 0 0
-0.180113 0 0
-0.180852 0 0
-0.180852 0 0
-0.181567 0 0
-0.181567 0 0
-0.182259 0 0
-0.182259 0 0
-0.182928 0 0
-0.182928 0 0
-0.183572 0 0
-0.183572 0 0
-0.184194 0 0
-0.184194 0 0
-0.184792 0 0
-0.184792 0 0
-0.185367 0 0
-0.185367 0 0
-0.185918 0 0
-0.185918 0 0
-0.186445 0 0
-0.186445 0 0
-0.18695 0 0
-0.18695 0 0
-0.18743 0 0
-0.18743 0 0
-0.187888 0 0
-0.187888 0 0
-0.188322 0 0
-0.188322 0 0
-0.188732 0 0
-0.188732 0 0
-0.189119 0 0
-0.189119 0 0
-0.189482 0 0
-0.189482 0 0
-0.189822 0 0
-0.189822 0 0
-0.190139 0 0
-0.190139 0 0
-0.190432 0 0
-0.190432 0 0
-0.190702 0 0
-0.190702 0 0
-0.190948 0 0
-0.190948 0 0
-0.191171 0 0
-0.191171 0 0
-0.19137 0 0
-0.19137 0 0
-0.191546 0 0
-0.191546 0 0
-0.191699 0 0
-0.191699 0 0
-0.191828 0 0
-0.191828 0 0
-0.191933 0 0
-0.191933 0 0
-0.192015 0 0
-0.192015 0 0
-0.192074 0 0
-0.192074 0 0
-0.192109 0 0
-0.192109 0 0
-0.192121 0 0
-0.192121 0 0
-0.192109 0 0
-0.192109 0 0
-0.192074 0 0
-0.192074 0 0
-0.192015 0 0
-0.192015 0 0
-0.191933 0 0
-0.191933 0 0
-0.191828 0 0
-0.191828 0 0
-0.191699 0 0
-0.191699 0 0
-0.191546 0 0
-0.191546 0 0
-0.19137 0 0
-0.19137 0 0
-0.191171 0 0
-0.191171 0 0
-0.190948 0 0
-0.190948 0 0
-0.190702 0 0
-0.190702 0 0
-0.190432 0 0
-0.190432 0 0
-0.190139 0 0
-0.190139 0 0
-0.189822 0 0
-0.189822 0 0
-0.189482 0 0
-0.189482 0 0
-0.189119 0 0
-0.189119 0 0
-0.188732 0 0
-0.188732 0 0
-0.188322 0 0
-0.188322 0 0
-0.187888 0 0
-0.187888 0 0
-0.18743 0 0
-0.18743 0 0
-0.18695 0 0
-0.18695 0 0
-0.186445 0 0
-0.186445 0 0
-0.185918 0 0
-0.185918 0 0
-0.185367 0 0
-0.185367 0 0
-0.184792 0 0
-0.184792 0 0
-0.184194 0 0
-0.184194 0 0
-0.183572 0 0
-0.183572 0 0
-0.182928 0 0
-0.182928 0 0
-0.182259 0 0
-0.182259 0 0
-0.181567 0 0
-0.181567 0 0
-0.180852 0 0
-0.180852 0 0
-0.180113 0 0
-0.180113 0 0
-0.179351 0 0
-0.179351 0 0
-0.178565 0 0
-0.178565 0 0
-0.177756 0 0
-0.177756 0 0
-0.176924 0 0
-0.176924 0 0
-0.176068 0 0
-0.176068 0 0
-0.175188 0 0
-0.175188 0 0
-0.174285 0 0
-0.174285 0 0
-0.173359 0 0
-0.173359 0 0
-0.172409 0 0
-0.172409 0 0
-0.171436 0 0
-0.171436 0 0
-0.170439 0 0
-0.170439 0 0
-0.169419 0 0
-0.169419 0 0
-0.168375 0 0
-0.168375 0 0
-0.167308 0 0
-0.167308 0 0
-0.166218 0 0
-0.166218 0 0
-0.165104 0 0
-0.165104 0 0
-0.163966 0 0
-0.163966 0 0
-0.162806 0 0
-0.162806 0 0
-0.161621 0 0
-0.161621 0 0
-0.160413 0 0
-0.160413 0 0
-0.159182 0 0
-0.159182 0 0
-0.157928 0 0
-0.157928 0 0
-0.156649 0 0
-0.156649 0 0
-0.155348 0 0
-0.155348 0 0
-0.154023 0 0
-0.154023 0 0
-0.152674 0 0
-0.152674 0 0
-0.151302 0 0
-0.151302 0 0
-0.149907 0 0
-0.149907 0 0
-0.148488 0 0
-0.148488 0 0
-0.147046 0 0
-0.147046 0 0
-0.14558 0 0
-0.14558 0 0
-0.144091 0 0
-0.144091 0 0
-0.142578 0 0
-0.142578 0 0
-0.141042 0 0
-0.141042 0 0
-0.139482 0 0
-0.139482 0 0
-0.137899 0 0
-0.137899 0 0
-0.136293 0 0
-0.136293 0 0
-0.134663 0 0
-0.134663 0 0
-0.13301 0 0
-0.13301 0 0
-0.131333 0 0
-0.131333 0 0
-0.129633 0 0
-0.129633 0 0
-0.127909 0 0
-0.127909 0 0
-0.126162 0 0
-0.126162 0 0
-0.124391 0 0
-0.124391 0 0
-0.122597 0 0
-0.122597 0 0
-0.120779 0 0
-0.120779 0 0
-0.118938 0 0
-0.118938 0 0
-0.117074 0 0
-0.117074 0 0
-0.115186 0 0
-0.115186 0 0
-0.113275 0 0
-0.113275 0 0
-0.11134 0 0
-0.11134 0 0
-0.109382 0 0
-0.109382 0 0
-0.1074 0 0
-0.1074 0 0
-0.105395 0 0
-0.105395 0 0
-0.103366 0 0
-0.103366 0 0
-0.101314 0 0
-0.101314 0 0
-0.0992384 0 0
-0.0992384 0 0
-0.0971394 0 0
-0.0971394 0 0
-0.095017 0 0
-0.095017 0 0
-0.0928711 0 0
-0.0928711 0 0
-0.0907017 0 0
-0.0907017 0 0
-0.0885089 0 0
-0.0885089 0 0
-0.0862927 0 0
-0.0862927 0 0
-0.084053 0 0
-0.084053 0 0
-0.0817898 0 0
-0.0817898 0 0
-0.0795032 0 0
-0.0795032 0 0
-0.0771931 0 0
-0.0771931 0 0
-0.0748596 0 0
-0.0748596 0 0
-0.0725026 0 0
-0.0725026 0 0
-0.0701222 0 0
-0.0701222 0 0
-0.0677184 0 0
-0.0677184 0 0
-0.065291 0 0
-0.065291 0 0
-0.0628403 0 0
-0.0628403 0 0
-0.060366 0 0
-0.060366 0 0
-0.0578684 0 0
-0.0578684 0 0
-0.0553472 0 0
-0.0553472 0 0
-0.0528026 0 0
-0.0528026 0 0
-0.0502346 0 0
-0.0502346 0 0
-0.0476431 0 0
-0.0476431 0 0
-0.0450281 0 0
-0.0450281 0 0
-0.0423897 0 0
-0.0423897 0 0
-0.0397279 0 0
-0.0397279 0 0
-0.0370426 0 0
-0.0370426 0 0
-0.0343339 0 0
-0.0343339 0 0
-0.0316018 0 0
-0.0316018 0 0
-0.0288461 0 0
-0.0288461 0 0
-0.026067 0 0
-0.026067 0 0
-0.0232645 0 0
-0.0232645 0 0
-0.0204385 0 0
-0.0204385 0 0
-0.0175891 0 0
-0.0175891 0 0
-0.0147162 0 0
-0.0147162 0 0
-0.0118199 0 0
-0.0118199 0 0
-0.00890008 0 0
-0.00890008 0 0
-0.00595684 0 0
-0.00595684 0 0
-0.00299015 0 0
-0.00299015 0 0
0 0 0
