# vtk DataFile Version 3.0
#This file was generated by the deal.II library on 2025/4/1 at 12:59:36
ASCII
DATASET UNSTRUCTURED_GRID

FIELD FieldData 1
TIME 1 1 double
2.79688
POINTS 32 double
0 0 0
0.0625 0 0
0.0625 0 0
0.125 0 0
0.125 0 0
0.1875 0 0
0.1875 0 0
0.25 0 0
0.25 0 0
0.3125 0 0
0.3125 0 0
0.375 0 0
0.375 0 0
0.4375 0 0
0.4375 0 0
0.5 0 0
0.5 0 0
0.5625 0 0
0.5625 0 0
0.625 0 0
0.625 0 0
0.6875 0 0
0.6875 0 0
0.75 0 0
0.75 0 0
0.8125 0 0
0.8125 0 0
0.875 0 0
0.875 0 0
0.9375 0 0
0.9375 0 0
1 0 0

CELLS 16 48
2	0	1
2	2	3
2	4	5
2	6	7
2	8	9
2	10	11
2	12	13
2	14	15
2	16	17
2	18	19
2	20	21
2	22	23
2	24	25
2	26	27
2	28	29
2	30	31

CELL_TYPES 16
 3 3 3 3 3 3 3 3 3 3 3 3 3 3 3 3
POINT_DATA 32
VECTORS displacement double
0 0 0
0.0197972 0 0
0.0197972 0 0
0.0369549 0 0
0.0369549 0 0
0.0514731 0 0
0.0514731 0 0
0.0633517 0 0
0.0633517 0 0
0.0725905 0 0
0.0725905 0 0
0.0791897 0 0
0.0791897 0 0
0.0831493 0 0
0.0831493 0 0
0.0844691 0 0
0.0844691 0 0
0.0831493 0 0
0.0831493 0 0
0.0791897 0 0
0.0791897 0 0
0.0725905 0 0
0.0725905 0 0
0.0633517 0 0
0.0633517 0 0
0.0514731 0 0
0.0514731 0 0
0.0369549 0 0
0.0369549 0 0
0.0197972 0 0
0.0197972 0 0
0 0 0
VECTORS velocity double
0 0 0
-0.0551422 0 0
-0.0551422 0 0
-0.102933 0 0
-0.102933 0 0
-0.143372 0 0
-0.143372 0 0
-0.176459 0 0
-0.176459 0 0
-0.202195 0 0
-0.202195 0 0
-0.220577 0 0
-0.220577 0 0
-0.231607 0 0
-0.231607 0 0
-0.235283 0 0
-0.235283 0 0
-0.231607 0 0
-0.231607 0 0
-0.220577 0 0
-0.220577 0 0
-0.202195 0 0
-0.202195 0 0
-0.176459 0 0
-0.176459 0 0
-0.143372 0 0
-0.143372 0 0
-0.102933 0 0
-0.102933 0 0
-0.0551422 0 0
-0.0551422 0 0
0 0 0
