# vtk DataFile Version 3.0
#This file was generated by the deal.II library on 2025/4/1 at 12:59:42
ASCII
DATASET UNSTRUCTURED_GRID

FIELD FieldData 1
TIME 1 1 double
3.64062
POINTS 32 double
0 0 0
0.0625 0 0
0.0625 0 0
0.125 0 0
0.125 0 0
0.1875 0 0
0.1875 0 0
0.25 0 0
0.25 0 0
0.3125 0 0
0.3125 0 0
0.375 0 0
0.375 0 0
0.4375 0 0
0.4375 0 0
0.5 0 0
0.5 0 0
0.5625 0 0
0.5625 0 0
0.625 0 0
0.625 0 0
0.6875 0 0
0.6875 0 0
0.75 0 0
0.75 0 0
0.8125 0 0
0.8125 0 0
0.875 0 0
0.875 0 0
0.9375 0 0
0.9375 0 0
1 0 0

CELLS 16 48
2	0	1
2	2	3
2	4	5
2	6	7
2	8	9
2	10	11
2	12	13
2	14	15
2	16	17
2	18	19
2	20	21
2	22	23
2	24	25
2	26	27
2	28	29
2	30	31

CELL_TYPES 16
 3 3 3 3 3 3 3 3 3 3 3 3 3 3 3 3
POINT_DATA 32
VECTORS displacement double
0 0 0
-0.0280368 0 0
-0.0280368 0 0
-0.0523357 0 0
-0.0523357 0 0
-0.0728967 0 0
-0.0728967 0 0
-0.0897194 0 0
-0.0897194 0 0
-0.102804 0 0
-0.102804 0 0
-0.11215 0 0
-0.11215 0 0
-0.117758 0 0
-0.117758 0 0
-0.119627 0 0
-0.119627 0 0
-0.117758 0 0
-0.117758 0 0
-0.11215 0 0
-0.11215 0 0
-0.102804 0 0
-0.102804 0 0
-0.0897194 0 0
-0.0897194 0 0
-0.0728967 0 0
-0.0728967 0 0
-0.0523357 0 0
-0.0523357 0 0
-0.0280368 0 0
-0.0280368 0 0
0 0 0
VECTORS velocity double
0 0 0
-0.0514247 0 0
-0.0514247 0 0
-0.0959908 0 0
-0.0959908 0 0
-0.133699 0 0
-0.133699 0 0
-0.164549 0 0
-0.164549 0 0
-0.188543 0 0
-0.188543 0 0
-0.205681 0 0
-0.205681 0 0
-0.215964 0 0
-0.215964 0 0
-0.219392 0 0
-0.219392 0 0
-0.215964 0 0
-0.215964 0 0
-0.205681 0 0
-0.205681 0 0
-0.188543 0 0
-0.188543 0 0
-0.164549 0 0
-0.164549 0 0
-0.133699 0 0
-0.133699 0 0
-0.0959908 0 0
-0.0959908 0 0
-0.0514247 0 0
-0.0514247 0 0
0 0 0
