# vtk DataFile Version 3.0
#This file was generated by the deal.II library on 2025/4/1 at 12:59:20
ASCII
DATASET UNSTRUCTURED_GRID

FIELD FieldData 1
TIME 1 1 double
0.523438
POINTS 32 double
0 0 0
0.0625 0 0
0.0625 0 0
0.125 0 0
0.125 0 0
0.1875 0 0
0.1875 0 0
0.25 0 0
0.25 0 0
0.3125 0 0
0.3125 0 0
0.375 0 0
0.375 0 0
0.4375 0 0
0.4375 0 0
0.5 0 0
0.5 0 0
0.5625 0 0
0.5625 0 0
0.625 0 0
0.625 0 0
0.6875 0 0
0.6875 0 0
0.75 0 0
0.75 0 0
0.8125 0 0
0.8125 0 0
0.875 0 0
0.875 0 0
0.9375 0 0
0.9375 0 0
1 0 0

CELLS 16 48
2	0	1
2	2	3
2	4	5
2	6	7
2	8	9
2	10	11
2	12	13
2	14	15
2	16	17
2	18	19
2	20	21
2	22	23
2	24	25
2	26	27
2	28	29
2	30	31

CELL_TYPES 16
 3 3 3 3 3 3 3 3 3 3 3 3 3 3 3 3
POINT_DATA 32
VECTORS displacement double
0 0 0
0.0292839 0 0
0.0292839 0 0
0.0546637 0 0
0.0546637 0 0
0.0761393 0 0
0.0761393 0 0
0.0937106 0 0
0.0937106 0 0
0.107377 0 0
0.107377 0 0
0.11714 0 0
0.11714 0 0
0.122997 0 0
0.122997 0 0
0.124949 0 0
0.124949 0 0
0.122997 0 0
0.122997 0 0
0.11714 0 0
0.11714 0 0
0.107377 0 0
0.107377 0 0
0.0937106 0 0
0.0937106 0 0
0.0761393 0 0
0.0761393 0 0
0.0546637 0 0
0.0546637 0 0
0.0292839 0 0
0.0292839 0 0
0 0 0
VECTORS velocity double
0 0 0
0.0507298 0 0
0.0507298 0 0
0.0946953 0 0
0.0946953 0 0
0.131897 0 0
0.131897 0 0
0.162334 0 0
0.162334 0 0
0.186007 0 0
0.186007 0 0
0.202916 0 0
0.202916 0 0
0.213061 0 0
0.213061 0 0
0.216442 0 0
0.216442 0 0
0.213061 0 0
0.213061 0 0
0.202916 0 0
0.202916 0 0
0.186007 0 0
0.186007 0 0
0.162334 0 0
0.162334 0 0
0.131897 0 0
0.131897 0 0
0.0946953 0 0
0.0946953 0 0
0.0507298 0 0
0.0507298 0 0
0 0 0
