# vtk DataFile Version 3.0
#This file was generated by the deal.II library on 2025/4/1 at 12:59:28
ASCII
DATASET UNSTRUCTURED_GRID

FIELD FieldData 1
TIME 1 1 double
1.67969
POINTS 32 double
0 0 0
0.0625 0 0
0.0625 0 0
0.125 0 0
0.125 0 0
0.1875 0 0
0.1875 0 0
0.25 0 0
0.25 0 0
0.3125 0 0
0.3125 0 0
0.375 0 0
0.375 0 0
0.4375 0 0
0.4375 0 0
0.5 0 0
0.5 0 0
0.5625 0 0
0.5625 0 0
0.625 0 0
0.625 0 0
0.6875 0 0
0.6875 0 0
0.75 0 0
0.75 0 0
0.8125 0 0
0.8125 0 0
0.875 0 0
0.875 0 0
0.9375 0 0
0.9375 0 0
1 0 0

CELLS 16 48
2	0	1
2	2	3
2	4	5
2	6	7
2	8	9
2	10	11
2	12	13
2	14	15
2	16	17
2	18	19
2	20	21
2	22	23
2	24	25
2	26	27
2	28	29
2	30	31

CELL_TYPES 16
 3 3 3 3 3 3 3 3 3 3 3 3 3 3 3 3
POINT_DATA 32
VECTORS displacement double
0 0 0
0.0582215 0 0
0.0582215 0 0
0.10868 0 0
0.10868 0 0
0.151374 0 0
0.151374 0 0
0.186306 0 0
0.186306 0 0
0.213475 0 0
0.213475 0 0
0.232882 0 0
0.232882 0 0
0.244525 0 0
0.244525 0 0
0.248407 0 0
0.248407 0 0
0.244525 0 0
0.244525 0 0
0.232882 0 0
0.232882 0 0
0.213475 0 0
0.213475 0 0
0.186306 0 0
0.186306 0 0
0.151374 0 0
0.151374 0 0
0.10868 0 0
0.10868 0 0
0.0582215 0 0
0.0582215 0 0
0 0 0
VECTORS velocity double
0 0 0
-0.0063581 0 0
-0.0063581 0 0
-0.0118666 0 0
-0.0118666 0 0
-0.0165258 0 0
-0.0165258 0 0
-0.0203367 0 0
-0.0203367 0 0
-0.0232997 0 0
-0.0232997 0 0
-0.0254154 0 0
-0.0254154 0 0
-0.0266848 0 0
-0.0266848 0 0
-0.027108 0 0
-0.027108 0 0
-0.0266848 0 0
-0.0266848 0 0
-0.0254154 0 0
-0.0254154 0 0
-0.0232997 0 0
-0.0232997 0 0
-0.0203367 0 0
-0.0203367 0 0
-0.0165258 0 0
-0.0165258 0 0
-0.0118666 0 0
-0.0118666 0 0
-0.0063581 0 0
-0.0063581 0 0
0 0 0
