# vtk DataFile Version 3.0
#This file was generated by the deal.II library on 2025/3/10 at 16:39:40
ASCII
DATASET UNSTRUCTURED_GRID

FIELD FieldData 1
TIME 1 1 double
4.12125
POINTS 256 double
0 0 0
0.625 0 0
0 0.0625 0
0.625 0.0625 0
0.625 0 0
1.25 0 0
0.625 0.0625 0
1.25 0.0625 0
0 0.0625 0
0.625 0.0625 0
0 0.125 0
0.625 0.125 0
0.625 0.0625 0
1.25 0.0625 0
0.625 0.125 0
1.25 0.125 0
1.25 0 0
1.875 0 0
1.25 0.0625 0
1.875 0.0625 0
1.875 0 0
2.5 0 0
1.875 0.0625 0
2.5 0.0625 0
1.25 0.0625 0
1.875 0.0625 0
1.25 0.125 0
1.875 0.125 0
1.875 0.0625 0
2.5 0.0625 0
1.875 0.125 0
2.5 0.125 0
0 0.125 0
0.625 0.125 0
0 0.1875 0
0.625 0.1875 0
0.625 0.125 0
1.25 0.125 0
0.625 0.1875 0
1.25 0.1875 0
0 0.1875 0
0.625 0.1875 0
0 0.25 0
0.625 0.25 0
0.625 0.1875 0
1.25 0.1875 0
0.625 0.25 0
1.25 0.25 0
1.25 0.125 0
1.875 0.125 0
1.25 0.1875 0
1.875 0.1875 0
1.875 0.125 0
2.5 0.125 0
1.875 0.1875 0
2.5 0.1875 0
1.25 0.1875 0
1.875 0.1875 0
1.25 0.25 0
1.875 0.25 0
1.875 0.1875 0
2.5 0.1875 0
1.875 0.25 0
2.5 0.25 0
2.5 0 0
3.125 0 0
2.5 0.0625 0
3.125 0.0625 0
3.125 0 0
3.75 0 0
3.125 0.0625 0
3.75 0.0625 0
2.5 0.0625 0
3.125 0.0625 0
2.5 0.125 0
3.125 0.125 0
3.125 0.0625 0
3.75 0.0625 0
3.125 0.125 0
3.75 0.125 0
3.75 0 0
4.375 0 0
3.75 0.0625 0
4.375 0.0625 0
4.375 0 0
5 0 0
4.375 0.0625 0
5 0.0625 0
3.75 0.0625 0
4.375 0.0625 0
3.75 0.125 0
4.375 0.125 0
4.375 0.0625 0
5 0.0625 0
4.375 0.125 0
5 0.125 0
2.5 0.125 0
3.125 0.125 0
2.5 0.1875 0
3.125 0.1875 0
3.125 0.125 0
3.75 0.125 0
3.125 0.1875 0
3.75 0.1875 0
2.5 0.1875 0
3.125 0.1875 0
2.5 0.25 0
3.125 0.25 0
3.125 0.1875 0
3.75 0.1875 0
3.125 0.25 0
3.75 0.25 0
3.75 0.125 0
4.375 0.125 0
3.75 0.1875 0
4.375 0.1875 0
4.375 0.125 0
5 0.125 0
4.375 0.1875 0
5 0.1875 0
3.75 0.1875 0
4.375 0.1875 0
3.75 0.25 0
4.375 0.25 0
4.375 0.1875 0
5 0.1875 0
4.375 0.25 0
5 0.25 0
0 0.25 0
0.625 0.25 0
0 0.3125 0
0.625 0.3125 0
0.625 0.25 0
1.25 0.25 0
0.625 0.3125 0
1.25 0.3125 0
0 0.3125 0
0.625 0.3125 0
0 0.375 0
0.625 0.375 0
0.625 0.3125 0
1.25 0.3125 0
0.625 0.375 0
1.25 0.375 0
1.25 0.25 0
1.875 0.25 0
1.25 0.3125 0
1.875 0.3125 0
1.875 0.25 0
2.5 0.25 0
1.875 0.3125 0
2.5 0.3125 0
1.25 0.3125 0
1.875 0.3125 0
1.25 0.375 0
1.875 0.375 0
1.875 0.3125 0
2.5 0.3125 0
1.875 0.375 0
2.5 0.375 0
0 0.375 0
0.625 0.375 0
0 0.4375 0
0.625 0.4375 0
0.625 0.375 0
1.25 0.375 0
0.625 0.4375 0
1.25 0.4375 0
0 0.4375 0
0.625 0.4375 0
0 0.5 0
0.625 0.5 0
0.625 0.4375 0
1.25 0.4375 0
0.625 0.5 0
1.25 0.5 0
1.25 0.375 0
1.875 0.375 0
1.25 0.4375 0
1.875 0.4375 0
1.875 0.375 0
2.5 0.375 0
1.875 0.4375 0
2.5 0.4375 0
1.25 0.4375 0
1.875 0.4375 0
1.25 0.5 0
1.875 0.5 0
1.875 0.4375 0
2.5 0.4375 0
1.875 0.5 0
2.5 0.5 0
2.5 0.25 0
3.125 0.25 0
2.5 0.3125 0
3.125 0.3125 0
3.125 0.25 0
3.75 0.25 0
3.125 0.3125 0
3.75 0.3125 0
2.5 0.3125 0
3.125 0.3125 0
2.5 0.375 0
3.125 0.375 0
3.125 0.3125 0
3.75 0.3125 0
3.125 0.375 0
3.75 0.375 0
3.75 0.25 0
4.375 0.25 0
3.75 0.3125 0
4.375 0.3125 0
4.375 0.25 0
5 0.25 0
4.375 0.3125 0
5 0.3125 0
3.75 0.3125 0
4.375 0.3125 0
3.75 0.375 0
4.375 0.375 0
4.375 0.3125 0
5 0.3125 0
4.375 0.375 0
5 0.375 0
2.5 0.375 0
3.125 0.375 0
2.5 0.4375 0
3.125 0.4375 0
3.125 0.375 0
3.75 0.375 0
3.125 0.4375 0
3.75 0.4375 0
2.5 0.4375 0
3.125 0.4375 0
2.5 0.5 0
3.125 0.5 0
3.125 0.4375 0
3.75 0.4375 0
3.125 0.5 0
3.75 0.5 0
3.75 0.375 0
4.375 0.375 0
3.75 0.4375 0
4.375 0.4375 0
4.375 0.375 0
5 0.375 0
4.375 0.4375 0
5 0.4375 0
3.75 0.4375 0
4.375 0.4375 0
3.75 0.5 0
4.375 0.5 0
4.375 0.4375 0
5 0.4375 0
4.375 0.5 0
5 0.5 0

CELLS 64 320
4	0	1	3	2
4	4	5	7	6
4	8	9	11	10
4	12	13	15	14
4	16	17	19	18
4	20	21	23	22
4	24	25	27	26
4	28	29	31	30
4	32	33	35	34
4	36	37	39	38
4	40	41	43	42
4	44	45	47	46
4	48	49	51	50
4	52	53	55	54
4	56	57	59	58
4	60	61	63	62
4	64	65	67	66
4	68	69	71	70
4	72	73	75	74
4	76	77	79	78
4	80	81	83	82
4	84	85	87	86
4	88	89	91	90
4	92	93	95	94
4	96	97	99	98
4	100	101	103	102
4	104	105	107	106
4	108	109	111	110
4	112	113	115	114
4	116	117	119	118
4	120	121	123	122
4	124	125	127	126
4	128	129	131	130
4	132	133	135	134
4	136	137	139	138
4	140	141	143	142
4	144	145	147	146
4	148	149	151	150
4	152	153	155	154
4	156	157	159	158
4	160	161	163	162
4	164	165	167	166
4	168	169	171	170
4	172	173	175	174
4	176	177	179	178
4	180	181	183	182
4	184	185	187	186
4	188	189	191	190
4	192	193	195	194
4	196	197	199	198
4	200	201	203	202
4	204	205	207	206
4	208	209	211	210
4	212	213	215	214
4	216	217	219	218
4	220	221	223	222
4	224	225	227	226
4	228	229	231	230
4	232	233	235	234
4	236	237	239	238
4	240	241	243	242
4	244	245	247	246
4	248	249	251	250
4	252	253	255	254

CELL_TYPES 64
 9 9 9 9 9 9 9 9 9 9 9 9 9 9 9 9 9 9 9 9 9 9 9 9 9 9 9 9 9 9 9 9 9 9 9 9 9 9 9 9 9 9 9 9 9 9 9 9 9 9 9 9 9 9 9 9 9 9 9 9 9 9 9 9
POINT_DATA 256
VECTORS displacement double
0 0 0
-1.1911e-05 -1.86243e-05 0
0 0 0
-8.70828e-06 -1.77587e-05 0
-1.1911e-05 -1.86243e-05 0
-2.26978e-05 -6.34717e-05 0
-8.70828e-06 -1.77587e-05 0
-1.70017e-05 -6.29718e-05 0
0 0 0
-8.70828e-06 -1.77587e-05 0
0 0 0
-5.70905e-06 -1.71462e-05 0
-8.70828e-06 -1.77587e-05 0
-1.70017e-05 -6.29718e-05 0
-5.70905e-06 -1.71462e-05 0
-1.13149e-05 -6.26052e-05 0
-2.26978e-05 -6.34717e-05 0
-3.02866e-05 -0.00013129 0
-1.70017e-05 -6.29718e-05 0
-2.26458e-05 -0.000130919 0
-3.02866e-05 -0.00013129 0
-3.53984e-05 -0.000214668 0
-2.26458e-05 -0.000130919 0
-2.65046e-05 -0.000214433 0
-1.70017e-05 -6.29718e-05 0
-2.26458e-05 -0.000130919 0
-1.13149e-05 -6.26052e-05 0
-1.50691e-05 -0.000130657 0
-2.26458e-05 -0.000130919 0
-2.65046e-05 -0.000214433 0
-1.50691e-05 -0.000130657 0
-1.76467e-05 -0.000214263 0
0 0 0
-5.70905e-06 -1.71462e-05 0
0 0 0
-2.82747e-06 -1.67812e-05 0
-5.70905e-06 -1.71462e-05 0
-1.13149e-05 -6.26052e-05 0
-2.82747e-06 -1.67812e-05 0
-5.64998e-06 -6.23817e-05 0
0 0 0
-2.82747e-06 -1.67812e-05 0
0 0 0
-6.9556e-18 -1.666e-05 0
-2.82747e-06 -1.67812e-05 0
-5.64998e-06 -6.23817e-05 0
-6.9556e-18 -1.666e-05 0
-1.92674e-17 -6.23067e-05 0
-1.13149e-05 -6.26052e-05 0
-1.50691e-05 -0.000130657 0
-5.64998e-06 -6.23817e-05 0
-7.52689e-06 -0.000130502 0
-1.50691e-05 -0.000130657 0
-1.76467e-05 -0.000214263 0
-7.52689e-06 -0.000130502 0
-8.81622e-06 -0.00021416 0
-5.64998e-06 -6.23817e-05 0
-7.52689e-06 -0.000130502 0
-1.92674e-17 -6.23067e-05 0
-3.53331e-17 -0.00013045 0
-7.52689e-06 -0.000130502 0
-8.81622e-06 -0.00021416 0
-3.53331e-17 -0.00013045 0
-4.63537e-17 -0.000214126 0
-3.53984e-05 -0.000214668 0
-3.85286e-05 -0.00030807 0
-2.65046e-05 -0.000214433 0
-2.88613e-05 -0.000307935 0
-3.85286e-05 -0.00030807 0
-4.01657e-05 -0.000407149 0
-2.88613e-05 -0.000307935 0
-3.0101e-05 -0.000407087 0
-2.65046e-05 -0.000214433 0
-2.88613e-05 -0.000307935 0
-1.76467e-05 -0.000214263 0
-1.92248e-05 -0.000307838 0
-2.88613e-05 -0.000307935 0
-3.0101e-05 -0.000407087 0
-1.92248e-05 -0.000307838 0
-2.00561e-05 -0.000407041 0
-4.01657e-05 -0.000407149 0
-4.08051e-05 -0.000508789 0
-3.0101e-05 -0.000407087 0
-3.05927e-05 -0.000508771 0
-4.08051e-05 -0.000508789 0
-4.09485e-05 -0.000611124 0
-3.05927e-05 -0.000508771 0
-3.07087e-05 -0.00061112 0
-3.0101e-05 -0.000407087 0
-3.05927e-05 -0.000508771 0
-2.00561e-05 -0.000407041 0
-2.03898e-05 -0.000508757 0
-3.05927e-05 -0.000508771 0
-3.07087e-05 -0.00061112 0
-2.03898e-05 -0.000508757 0
-2.04711e-05 -0.000611117 0
-1.76467e-05 -0.000214263 0
-1.92248e-05 -0.000307838 0
-8.81622e-06 -0.00021416 0
-9.60762e-06 -0.00030778 0
-1.92248e-05 -0.000307838 0
-2.00561e-05 -0.000407041 0
-9.60762e-06 -0.00030778 0
-1.00247e-05 -0.000407014 0
-8.81622e-06 -0.00021416 0
-9.60762e-06 -0.00030778 0
-4.63537e-17 -0.000214126 0
-5.47407e-17 -0.000307761 0
-9.60762e-06 -0.00030778 0
-1.00247e-05 -0.000407014 0
-5.47407e-17 -0.000307761 0
-6.56669e-17 -0.000407005 0
-2.00561e-05 -0.000407041 0
-2.03898e-05 -0.000508757 0
-1.00247e-05 -0.000407014 0
-1.01933e-05 -0.000508749 0
-2.03898e-05 -0.000508757 0
-2.04711e-05 -0.000611117 0
-1.01933e-05 -0.000508749 0
-1.02351e-05 -0.000611115 0
-1.00247e-05 -0.000407014 0
-1.01933e-05 -0.000508749 0
-6.56669e-17 -0.000407005 0
-6.71189e-17 -0.000508746 0
-1.01933e-05 -0.000508749 0
-1.02351e-05 -0.000611115 0
-6.71189e-17 -0.000508746 0
-6.61881e-17 -0.000611114 0
0 0 0
-6.9556e-18 -1.666e-05 0
0 0 0
2.82747e-06 -1.67812e-05 0
-6.9556e-18 -1.666e-05 0
-1.92674e-17 -6.23067e-05 0
2.82747e-06 -1.67812e-05 0
5.64998e-06 -6.23817e-05 0
0 0 0
2.82747e-06 -1.67812e-05 0
0 0 0
5.70905e-06 -1.71462e-05 0
2.82747e-06 -1.67812e-05 0
5.64998e-06 -6.23817e-05 0
5.70905e-06 -1.71462e-05 0
1.13149e-05 -6.26052e-05 0
-1.92674e-17 -6.23067e-05 0
-3.53331e-17 -0.00013045 0
5.64998e-06 -6.23817e-05 0
7.52689e-06 -0.000130502 0
-3.53331e-17 -0.00013045 0
-4.63537e-17 -0.000214126 0
7.52689e-06 -0.000130502 0
8.81622e-06 -0.00021416 0
5.64998e-06 -6.23817e-05 0
7.52689e-06 -0.000130502 0
1.13149e-05 -6.26052e-05 0
1.50691e-05 -0.000130657 0
7.52689e-06 -0.000130502 0
8.81622e-06 -0.00021416 0
1.50691e-05 -0.000130657 0
1.76467e-05 -0.000214263 0
0 0 0
5.70905e-06 -1.71462e-05 0
0 0 0
8.70828e-06 -1.77587e-05 0
5.70905e-06 -1.71462e-05 0
1.13149e-05 -6.26052e-05 0
8.70828e-06 -1.77587e-05 0
1.70017e-05 -6.29718e-05 0
0 0 0
8.70828e-06 -1.77587e-05 0
0 0 0
1.1911e-05 -1.86243e-05 0
8.70828e-06 -1.77587e-05 0
1.70017e-05 -6.29718e-05 0
1.1911e-05 -1.86243e-05 0
2.26978e-05 -6.34717e-05 0
1.13149e-05 -6.26052e-05 0
1.50691e-05 -0.000130657 0
1.70017e-05 -6.29718e-05 0
2.26458e-05 -0.000130919 0
1.50691e-05 -0.000130657 0
1.76467e-05 -0.000214263 0
2.26458e-05 -0.000130919 0
2.65046e-05 -0.000214433 0
1.70017e-05 -6.29718e-05 0
2.26458e-05 -0.000130919 0
2.26978e-05 -6.34717e-05 0
3.02866e-05 -0.00013129 0
2.26458e-05 -0.000130919 0
2.65046e-05 -0.000214433 0
3.02866e-05 -0.00013129 0
3.53984e-05 -0.000214668 0
-4.63537e-17 -0.000214126 0
-5.47407e-17 -0.000307761 0
8.81622e-06 -0.00021416 0
9.60762e-06 -0.00030778 0
-5.47407e-17 -0.000307761 0
-6.56669e-17 -0.000407005 0
9.60762e-06 -0.00030778 0
1.00247e-05 -0.000407014 0
8.81622e-06 -0.00021416 0
9.60762e-06 -0.00030778 0
1.76467e-05 -0.000214263 0
1.92248e-05 -0.000307838 0
9.60762e-06 -0.00030778 0
1.00247e-05 -0.000407014 0
1.92248e-05 -0.000307838 0
2.00561e-05 -0.000407041 0
-6.56669e-17 -0.000407005 0
-6.71189e-17 -0.000508746 0
1.00247e-05 -0.000407014 0
1.01933e-05 -0.000508749 0
-6.71189e-17 -0.000508746 0
-6.61881e-17 -0.000611114 0
1.01933e-05 -0.000508749 0
1.02351e-05 -0.000611115 0
1.00247e-05 -0.000407014 0
1.01933e-05 -0.000508749 0
2.00561e-05 -0.000407041 0
2.03898e-05 -0.000508757 0
1.01933e-05 -0.000508749 0
1.02351e-05 -0.000611115 0
2.03898e-05 -0.000508757 0
2.04711e-05 -0.000611117 0
1.76467e-05 -0.000214263 0
1.92248e-05 -0.000307838 0
2.65046e-05 -0.000214433 0
2.88613e-05 -0.000307935 0
1.92248e-05 -0.000307838 0
2.00561e-05 -0.000407041 0
2.88613e-05 -0.000307935 0
3.0101e-05 -0.000407087 0
2.65046e-05 -0.000214433 0
2.88613e-05 -0.000307935 0
3.53984e-05 -0.000214668 0
3.85286e-05 -0.00030807 0
2.88613e-05 -0.000307935 0
3.0101e-05 -0.000407087 0
3.85286e-05 -0.00030807 0
4.01657e-05 -0.000407149 0
2.00561e-05 -0.000407041 0
2.03898e-05 -0.000508757 0
3.0101e-05 -0.000407087 0
3.05927e-05 -0.000508771 0
2.03898e-05 -0.000508757 0
2.04711e-05 -0.000611117 0
3.05927e-05 -0.000508771 0
3.07087e-05 -0.00061112 0
3.0101e-05 -0.000407087 0
3.05927e-05 -0.000508771 0
4.01657e-05 -0.000407149 0
4.08051e-05 -0.000508789 0
3.05927e-05 -0.000508771 0
3.07087e-05 -0.00061112 0
4.08051e-05 -0.000508789 0
4.09485e-05 -0.000611124 0
VECTORS velocity double
0 0 0
4.62486e-06 6.33602e-06 0
0 0 0
3.42054e-06 5.97603e-06 0
4.62486e-06 6.33602e-06 0
9.78229e-06 2.45827e-05 0
3.42054e-06 5.97603e-06 0
7.33305e-06 2.43138e-05 0
0 0 0
3.42054e-06 5.97603e-06 0
0 0 0
2.25987e-06 5.72033e-06 0
3.42054e-06 5.97603e-06 0
7.33305e-06 2.43138e-05 0
2.25987e-06 5.72033e-06 0
4.88457e-06 2.41202e-05 0
9.78229e-06 2.45827e-05 0
1.41001e-05 5.4984e-05 0
7.33305e-06 2.43138e-05 0
1.05472e-05 5.47585e-05 0
1.41001e-05 5.4984e-05 0
1.74277e-05 9.4988e-05 0
1.05472e-05 5.47585e-05 0
1.30484e-05 9.48235e-05 0
7.33305e-06 2.43138e-05 0
1.05472e-05 5.47585e-05 0
4.88457e-06 2.41202e-05 0
7.01959e-06 5.45987e-05 0
1.05472e-05 5.47585e-05 0
1.30484e-05 9.48235e-05 0
7.01959e-06 5.45987e-05 0
8.68772e-06 9.47053e-05 0
0 0 0
2.25987e-06 5.72033e-06 0
0 0 0
1.12421e-06 5.56754e-06 0
2.25987e-06 5.72033e-06 0
4.88457e-06 2.41202e-05 0
1.12421e-06 5.56754e-06 0
2.44064e-06 2.40033e-05 0
0 0 0
1.12421e-06 5.56754e-06 0
0 0 0
1.57474e-15 5.51672e-06 0
1.12421e-06 5.56754e-06 0
2.44064e-06 2.40033e-05 0
1.57474e-15 5.51672e-06 0
-9.15865e-15 2.39643e-05 0
4.88457e-06 2.41202e-05 0
7.01959e-06 5.45987e-05 0
2.44064e-06 2.40033e-05 0
3.50646e-06 5.45034e-05 0
7.01959e-06 5.45987e-05 0
8.68772e-06 9.47053e-05 0
3.50646e-06 5.45034e-05 0
4.34042e-06 9.46342e-05 0
2.44064e-06 2.40033e-05 0
3.50646e-06 5.45034e-05 0
-9.15865e-15 2.39643e-05 0
-1.83054e-15 5.44717e-05 0
3.50646e-06 5.45034e-05 0
4.34042e-06 9.46342e-05 0
-1.83054e-15 5.44717e-05 0
-1.63948e-14 9.46105e-05 0
1.74277e-05 9.4988e-05 0
1.97737e-05 0.000142015 0
1.30484e-05 9.48235e-05 0
1.48096e-05 0.000141905 0
1.97737e-05 0.000142015 0
2.12232e-05 0.000193756 0
1.48096e-05 0.000141905 0
1.58977e-05 0.000193696 0
1.30484e-05 9.48235e-05 0
1.48096e-05 0.000141905 0
8.68772e-06 9.47053e-05 0
9.86337e-06 0.000141826 0
1.48096e-05 0.000141905 0
1.58977e-05 0.000193696 0
9.86337e-06 0.000141826 0
1.05891e-05 0.000193653 0
2.12232e-05 0.000193756 0
2.18731e-05 0.000248044 0
1.58977e-05 0.000193696 0
1.63928e-05 0.000248025 0
2.18731e-05 0.000248044 0
2.20275e-05 0.000303074 0
1.63928e-05 0.000248025 0
1.65178e-05 0.000303069 0
1.58977e-05 0.000193696 0
1.63928e-05 0.000248025 0
1.05891e-05 0.000193653 0
1.09228e-05 0.00024801 0
1.63928e-05 0.000248025 0
1.65178e-05 0.000303069 0
1.09228e-05 0.00024801 0
1.10104e-05 0.000303066 0
8.68772e-06 9.47053e-05 0
9.86337e-06 0.000141826 0
4.34042e-06 9.46342e-05 0
4.92878e-06 0.000141779 0
9.86337e-06 0.000141826 0
1.05891e-05 0.000193653 0
4.92878e-06 0.000141779 0
5.29177e-06 0.000193628 0
4.34042e-06 9.46342e-05 0
4.92878e-06 0.000141779 0
-1.63948e-14 9.46105e-05 0
2.48675e-15 0.000141763 0
4.92878e-06 0.000141779 0
5.29177e-06 0.000193628 0
2.48675e-15 0.000141763 0
-2.63659e-14 0.000193619 0
1.05891e-05 0.000193653 0
1.09228e-05 0.00024801 0
5.29177e-06 0.000193628 0
5.45967e-06 0.000248001 0
1.09228e-05 0.00024801 0
1.10104e-05 0.000303066 0
5.45967e-06 0.000248001 0
5.50469e-06 0.000303063 0
5.29177e-06 0.000193628 0
5.45967e-06 0.000248001 0
-2.63659e-14 0.000193619 0
-4.06902e-15 0.000247998 0
5.45967e-06 0.000248001 0
5.50469e-06 0.000303063 0
-4.06902e-15 0.000247998 0
-3.25776e-15 0.000303062 0
0 0 0
1.57474e-15 5.51672e-06 0
0 0 0
-1.12421e-06 5.56754e-06 0
1.57474e-15 5.51672e-06 0
-9.15865e-15 2.39643e-05 0
-1.12421e-06 5.56754e-06 0
-2.44064e-06 2.40033e-05 0
0 0 0
-1.12421e-06 5.56754e-06 0
0 0 0
-2.25987e-06 5.72033e-06 0
-1.12421e-06 5.56754e-06 0
-2.44064e-06 2.40033e-05 0
-2.25987e-06 5.72033e-06 0
-4.88457e-06 2.41202e-05 0
-9.15865e-15 2.39643e-05 0
-1.83054e-15 5.44717e-05 0
-2.44064e-06 2.40033e-05 0
-3.50646e-06 5.45034e-05 0
-1.83054e-15 5.44717e-05 0
-1.63948e-14 9.46105e-05 0
-3.50646e-06 5.45034e-05 0
-4.34042e-06 9.46342e-05 0
-2.44064e-06 2.40033e-05 0
-3.50646e-06 5.45034e-05 0
-4.88457e-06 2.41202e-05 0
-7.01959e-06 5.45987e-05 0
-3.50646e-06 5.45034e-05 0
-4.34042e-06 9.46342e-05 0
-7.01959e-06 5.45987e-05 0
-8.68772e-06 9.47053e-05 0
0 0 0
-2.25987e-06 5.72033e-06 0
0 0 0
-3.42054e-06 5.97603e-06 0
-2.25987e-06 5.72033e-06 0
-4.88457e-06 2.41202e-05 0
-3.42054e-06 5.97603e-06 0
-7.33305e-06 2.43138e-05 0
0 0 0
-3.42054e-06 5.97603e-06 0
0 0 0
-4.62486e-06 6.33602e-06 0
-3.42054e-06 5.97603e-06 0
-7.33305e-06 2.43138e-05 0
-4.62486e-06 6.33602e-06 0
-9.78229e-06 2.45827e-05 0
-4.88457e-06 2.41202e-05 0
-7.01959e-06 5.45987e-05 0
-7.33305e-06 2.43138e-05 0
-1.05472e-05 5.47585e-05 0
-7.01959e-06 5.45987e-05 0
-8.68772e-06 9.47053e-05 0
-1.05472e-05 5.47585e-05 0
-1.30484e-05 9.48235e-05 0
-7.33305e-06 2.43138e-05 0
-1.05472e-05 5.47585e-05 0
-9.78229e-06 2.45827e-05 0
-1.41001e-05 5.4984e-05 0
-1.05472e-05 5.47585e-05 0
-1.30484e-05 9.48235e-05 0
-1.41001e-05 5.4984e-05 0
-1.74277e-05 9.4988e-05 0
-1.63948e-14 9.46105e-05 0
2.48675e-15 0.000141763 0
-4.34042e-06 9.46342e-05 0
-4.92878e-06 0.000141779 0
2.48675e-15 0.000141763 0
-2.63659e-14 0.000193619 0
-4.92878e-06 0.000141779 0
-5.29177e-06 0.000193628 0
-4.34042e-06 9.46342e-05 0
-4.92878e-06 0.000141779 0
-8.68772e-06 9.47053e-05 0
-9.86337e-06 0.000141826 0
-4.92878e-06 0.000141779 0
-5.29177e-06 0.000193628 0
-9.86337e-06 0.000141826 0
-1.05891e-05 0.000193653 0
-2.63659e-14 0.000193619 0
-4.06902e-15 0.000247998 0
-5.29177e-06 0.000193628 0
-5.45967e-06 0.000248001 0
-4.06902e-15 0.000247998 0
-3.25776e-15 0.000303062 0
-5.45967e-06 0.000248001 0
-5.50469e-06 0.000303063 0
-5.29177e-06 0.000193628 0
-5.45967e-06 0.000248001 0
-1.05891e-05 0.000193653 0
-1.09228e-05 0.00024801 0
-5.45967e-06 0.000248001 0
-5.50469e-06 0.000303063 0
-1.09228e-05 0.00024801 0
-1.10104e-05 0.000303066 0
-8.68772e-06 9.47053e-05 0
-9.86337e-06 0.000141826 0
-1.30484e-05 9.48235e-05 0
-1.48096e-05 0.000141905 0
-9.86337e-06 0.000141826 0
-1.05891e-05 0.000193653 0
-1.48096e-05 0.000141905 0
-1.58977e-05 0.000193696 0
-1.30484e-05 9.48235e-05 0
-1.48096e-05 0.000141905 0
-1.74277e-05 9.4988e-05 0
-1.97737e-05 0.000142015 0
-1.48096e-05 0.000141905 0
-1.58977e-05 0.000193696 0
-1.97737e-05 0.000142015 0
-2.12232e-05 0.000193756 0
-1.05891e-05 0.000193653 0
-1.09228e-05 0.00024801 0
-1.58977e-05 0.000193696 0
-1.63928e-05 0.000248025 0
-1.09228e-05 0.00024801 0
-1.10104e-05 0.000303066 0
-1.63928e-05 0.000248025 0
-1.65178e-05 0.000303069 0
-1.58977e-05 0.000193696 0
-1.63928e-05 0.000248025 0
-2.12232e-05 0.000193756 0
-2.18731e-05 0.000248044 0
-1.63928e-05 0.000248025 0
-1.65178e-05 0.000303069 0
-2.18731e-05 0.000248044 0
-2.20275e-05 0.000303074 0
