# vtk DataFile Version 3.0
#This file was generated by the deal.II library on 2025/3/10 at 16:33:52
ASCII
DATASET UNSTRUCTURED_GRID

FIELD FieldData 1
TIME 1 1 double
1.88891
POINTS 256 double
0 0 0
0.625 0 0
0 0.0625 0
0.625 0.0625 0
0.625 0 0
1.25 0 0
0.625 0.0625 0
1.25 0.0625 0
0 0.0625 0
0.625 0.0625 0
0 0.125 0
0.625 0.125 0
0.625 0.0625 0
1.25 0.0625 0
0.625 0.125 0
1.25 0.125 0
1.25 0 0
1.875 0 0
1.25 0.0625 0
1.875 0.0625 0
1.875 0 0
2.5 0 0
1.875 0.0625 0
2.5 0.0625 0
1.25 0.0625 0
1.875 0.0625 0
1.25 0.125 0
1.875 0.125 0
1.875 0.0625 0
2.5 0.0625 0
1.875 0.125 0
2.5 0.125 0
0 0.125 0
0.625 0.125 0
0 0.1875 0
0.625 0.1875 0
0.625 0.125 0
1.25 0.125 0
0.625 0.1875 0
1.25 0.1875 0
0 0.1875 0
0.625 0.1875 0
0 0.25 0
0.625 0.25 0
0.625 0.1875 0
1.25 0.1875 0
0.625 0.25 0
1.25 0.25 0
1.25 0.125 0
1.875 0.125 0
1.25 0.1875 0
1.875 0.1875 0
1.875 0.125 0
2.5 0.125 0
1.875 0.1875 0
2.5 0.1875 0
1.25 0.1875 0
1.875 0.1875 0
1.25 0.25 0
1.875 0.25 0
1.875 0.1875 0
2.5 0.1875 0
1.875 0.25 0
2.5 0.25 0
2.5 0 0
3.125 0 0
2.5 0.0625 0
3.125 0.0625 0
3.125 0 0
3.75 0 0
3.125 0.0625 0
3.75 0.0625 0
2.5 0.0625 0
3.125 0.0625 0
2.5 0.125 0
3.125 0.125 0
3.125 0.0625 0
3.75 0.0625 0
3.125 0.125 0
3.75 0.125 0
3.75 0 0
4.375 0 0
3.75 0.0625 0
4.375 0.0625 0
4.375 0 0
5 0 0
4.375 0.0625 0
5 0.0625 0
3.75 0.0625 0
4.375 0.0625 0
3.75 0.125 0
4.375 0.125 0
4.375 0.0625 0
5 0.0625 0
4.375 0.125 0
5 0.125 0
2.5 0.125 0
3.125 0.125 0
2.5 0.1875 0
3.125 0.1875 0
3.125 0.125 0
3.75 0.125 0
3.125 0.1875 0
3.75 0.1875 0
2.5 0.1875 0
3.125 0.1875 0
2.5 0.25 0
3.125 0.25 0
3.125 0.1875 0
3.75 0.1875 0
3.125 0.25 0
3.75 0.25 0
3.75 0.125 0
4.375 0.125 0
3.75 0.1875 0
4.375 0.1875 0
4.375 0.125 0
5 0.125 0
4.375 0.1875 0
5 0.1875 0
3.75 0.1875 0
4.375 0.1875 0
3.75 0.25 0
4.375 0.25 0
4.375 0.1875 0
5 0.1875 0
4.375 0.25 0
5 0.25 0
0 0.25 0
0.625 0.25 0
0 0.3125 0
0.625 0.3125 0
0.625 0.25 0
1.25 0.25 0
0.625 0.3125 0
1.25 0.3125 0
0 0.3125 0
0.625 0.3125 0
0 0.375 0
0.625 0.375 0
0.625 0.3125 0
1.25 0.3125 0
0.625 0.375 0
1.25 0.375 0
1.25 0.25 0
1.875 0.25 0
1.25 0.3125 0
1.875 0.3125 0
1.875 0.25 0
2.5 0.25 0
1.875 0.3125 0
2.5 0.3125 0
1.25 0.3125 0
1.875 0.3125 0
1.25 0.375 0
1.875 0.375 0
1.875 0.3125 0
2.5 0.3125 0
1.875 0.375 0
2.5 0.375 0
0 0.375 0
0.625 0.375 0
0 0.4375 0
0.625 0.4375 0
0.625 0.375 0
1.25 0.375 0
0.625 0.4375 0
1.25 0.4375 0
0 0.4375 0
0.625 0.4375 0
0 0.5 0
0.625 0.5 0
0.625 0.4375 0
1.25 0.4375 0
0.625 0.5 0
1.25 0.5 0
1.25 0.375 0
1.875 0.375 0
1.25 0.4375 0
1.875 0.4375 0
1.875 0.375 0
2.5 0.375 0
1.875 0.4375 0
2.5 0.4375 0
1.25 0.4375 0
1.875 0.4375 0
1.25 0.5 0
1.875 0.5 0
1.875 0.4375 0
2.5 0.4375 0
1.875 0.5 0
2.5 0.5 0
2.5 0.25 0
3.125 0.25 0
2.5 0.3125 0
3.125 0.3125 0
3.125 0.25 0
3.75 0.25 0
3.125 0.3125 0
3.75 0.3125 0
2.5 0.3125 0
3.125 0.3125 0
2.5 0.375 0
3.125 0.375 0
3.125 0.3125 0
3.75 0.3125 0
3.125 0.375 0
3.75 0.375 0
3.75 0.25 0
4.375 0.25 0
3.75 0.3125 0
4.375 0.3125 0
4.375 0.25 0
5 0.25 0
4.375 0.3125 0
5 0.3125 0
3.75 0.3125 0
4.375 0.3125 0
3.75 0.375 0
4.375 0.375 0
4.375 0.3125 0
5 0.3125 0
4.375 0.375 0
5 0.375 0
2.5 0.375 0
3.125 0.375 0
2.5 0.4375 0
3.125 0.4375 0
3.125 0.375 0
3.75 0.375 0
3.125 0.4375 0
3.75 0.4375 0
2.5 0.4375 0
3.125 0.4375 0
2.5 0.5 0
3.125 0.5 0
3.125 0.4375 0
3.75 0.4375 0
3.125 0.5 0
3.75 0.5 0
3.75 0.375 0
4.375 0.375 0
3.75 0.4375 0
4.375 0.4375 0
4.375 0.375 0
5 0.375 0
4.375 0.4375 0
5 0.4375 0
3.75 0.4375 0
4.375 0.4375 0
3.75 0.5 0
4.375 0.5 0
4.375 0.4375 0
5 0.4375 0
4.375 0.5 0
5 0.5 0

CELLS 64 320
4	0	1	3	2
4	4	5	7	6
4	8	9	11	10
4	12	13	15	14
4	16	17	19	18
4	20	21	23	22
4	24	25	27	26
4	28	29	31	30
4	32	33	35	34
4	36	37	39	38
4	40	41	43	42
4	44	45	47	46
4	48	49	51	50
4	52	53	55	54
4	56	57	59	58
4	60	61	63	62
4	64	65	67	66
4	68	69	71	70
4	72	73	75	74
4	76	77	79	78
4	80	81	83	82
4	84	85	87	86
4	88	89	91	90
4	92	93	95	94
4	96	97	99	98
4	100	101	103	102
4	104	105	107	106
4	108	109	111	110
4	112	113	115	114
4	116	117	119	118
4	120	121	123	122
4	124	125	127	126
4	128	129	131	130
4	132	133	135	134
4	136	137	139	138
4	140	141	143	142
4	144	145	147	146
4	148	149	151	150
4	152	153	155	154
4	156	157	159	158
4	160	161	163	162
4	164	165	167	166
4	168	169	171	170
4	172	173	175	174
4	176	177	179	178
4	180	181	183	182
4	184	185	187	186
4	188	189	191	190
4	192	193	195	194
4	196	197	199	198
4	200	201	203	202
4	204	205	207	206
4	208	209	211	210
4	212	213	215	214
4	216	217	219	218
4	220	221	223	222
4	224	225	227	226
4	228	229	231	230
4	232	233	235	234
4	236	237	239	238
4	240	241	243	242
4	244	245	247	246
4	248	249	251	250
4	252	253	255	254

CELL_TYPES 64
 9 9 9 9 9 9 9 9 9 9 9 9 9 9 9 9 9 9 9 9 9 9 9 9 9 9 9 9 9 9 9 9 9 9 9 9 9 9 9 9 9 9 9 9 9 9 9 9 9 9 9 9 9 9 9 9 9 9 9 9 9 9 9 9
POINT_DATA 256
VECTORS displacement double
0 0 0
1.36782e-05 2.13865e-05 0
0 0 0
1.00004e-05 2.03924e-05 0
1.36782e-05 2.13865e-05 0
2.60662e-05 7.28888e-05 0
1.00004e-05 2.03924e-05 0
1.95248e-05 7.23147e-05 0
0 0 0
1.00004e-05 2.03924e-05 0
0 0 0
6.55615e-06 1.9689e-05 0
1.00004e-05 2.03924e-05 0
1.95248e-05 7.23147e-05 0
6.55615e-06 1.9689e-05 0
1.2994e-05 7.18937e-05 0
2.60662e-05 7.28888e-05 0
3.47814e-05 0.000150772 0
1.95248e-05 7.23147e-05 0
2.60066e-05 0.000150346 0
3.47814e-05 0.000150772 0
4.06509e-05 0.000246524 0
2.60066e-05 0.000150346 0
3.04374e-05 0.000246254 0
1.95248e-05 7.23147e-05 0
2.60066e-05 0.000150346 0
1.2994e-05 7.18937e-05 0
1.73055e-05 0.000150046 0
2.60066e-05 0.000150346 0
3.04374e-05 0.000246254 0
1.73055e-05 0.000150046 0
2.02652e-05 0.000246059 0
0 0 0
6.55615e-06 1.9689e-05 0
0 0 0
3.24701e-06 1.92699e-05 0
6.55615e-06 1.9689e-05 0
1.2994e-05 7.18937e-05 0
3.24701e-06 1.92699e-05 0
6.48846e-06 7.16371e-05 0
0 0 0
3.24701e-06 1.92699e-05 0
0 0 0
8.85114e-18 1.91307e-05 0
3.24701e-06 1.92699e-05 0
6.48846e-06 7.16371e-05 0
8.85114e-18 1.91307e-05 0
1.94265e-17 7.15508e-05 0
1.2994e-05 7.18937e-05 0
1.73055e-05 0.000150046 0
6.48846e-06 7.16371e-05 0
8.64392e-06 0.000149867 0
1.73055e-05 0.000150046 0
2.02652e-05 0.000246059 0
8.64392e-06 0.000149867 0
1.01244e-05 0.000245941 0
6.48846e-06 7.16371e-05 0
8.64392e-06 0.000149867 0
1.94265e-17 7.15508e-05 0
2.76085e-17 0.000149808 0
8.64392e-06 0.000149867 0
1.01244e-05 0.000245941 0
2.76085e-17 0.000149808 0
3.91324e-17 0.000245901 0
4.06509e-05 0.000246524 0
4.42442e-05 0.000353784 0
3.04374e-05 0.000246254 0
3.31428e-05 0.000353629 0
4.42442e-05 0.000353784 0
4.61227e-05 0.000467558 0
3.31428e-05 0.000353629 0
3.45653e-05 0.000467487 0
3.04374e-05 0.000246254 0
3.31428e-05 0.000353629 0
2.02652e-05 0.000246059 0
2.20767e-05 0.000353518 0
3.31428e-05 0.000353629 0
3.45653e-05 0.000467487 0
2.20767e-05 0.000353518 0
2.30306e-05 0.000467435 0
4.61227e-05 0.000467558 0
4.68562e-05 0.000584272 0
3.45653e-05 0.000467487 0
3.51294e-05 0.000584251 0
4.68562e-05 0.000584272 0
4.70205e-05 0.000701782 0
3.51294e-05 0.000584251 0
3.52624e-05 0.000701777 0
3.45653e-05 0.000467487 0
3.51294e-05 0.000584251 0
2.30306e-05 0.000467435 0
2.34135e-05 0.000584235 0
3.51294e-05 0.000584251 0
3.52624e-05 0.000701777 0
2.34135e-05 0.000584235 0
2.35066e-05 0.000701773 0
2.02652e-05 0.000246059 0
2.20767e-05 0.000353518 0
1.01244e-05 0.000245941 0
1.10329e-05 0.000353451 0
2.20767e-05 0.000353518 0
2.30306e-05 0.000467435 0
1.10329e-05 0.000353451 0
1.15114e-05 0.000467404 0
1.01244e-05 0.000245941 0
1.10329e-05 0.000353451 0
3.91324e-17 0.000245901 0
4.7437e-17 0.000353429 0
1.10329e-05 0.000353451 0
1.15114e-05 0.000467404 0
4.7437e-17 0.000353429 0
5.4216e-17 0.000467393 0
2.30306e-05 0.000467435 0
2.34135e-05 0.000584235 0
1.15114e-05 0.000467404 0
1.17049e-05 0.000584225 0
2.34135e-05 0.000584235 0
2.35066e-05 0.000701773 0
1.17049e-05 0.000584225 0
1.17528e-05 0.000701771 0
1.15114e-05 0.000467404 0
1.17049e-05 0.000584225 0
5.4216e-17 0.000467393 0
5.78935e-17 0.000584222 0
1.17049e-05 0.000584225 0
1.17528e-05 0.000701771 0
5.78935e-17 0.000584222 0
6.25337e-17 0.00070177 0
0 0 0
8.85114e-18 1.91307e-05 0
0 0 0
-3.24701e-06 1.92699e-05 0
8.85114e-18 1.91307e-05 0
1.94265e-17 7.15508e-05 0
-3.24701e-06 1.92699e-05 0
-6.48846e-06 7.16371e-05 0
0 0 0
-3.24701e-06 1.92699e-05 0
0 0 0
-6.55615e-06 1.9689e-05 0
-3.24701e-06 1.92699e-05 0
-6.48846e-06 7.16371e-05 0
-6.55615e-06 1.9689e-05 0
-1.2994e-05 7.18937e-05 0
1.94265e-17 7.15508e-05 0
2.76085e-17 0.000149808 0
-6.48846e-06 7.16371e-05 0
-8.64392e-06 0.000149867 0
2.76085e-17 0.000149808 0
3.91324e-17 0.000245901 0
-8.64392e-06 0.000149867 0
-1.01244e-05 0.000245941 0
-6.48846e-06 7.16371e-05 0
-8.64392e-06 0.000149867 0
-1.2994e-05 7.18937e-05 0
-1.73055e-05 0.000150046 0
-8.64392e-06 0.000149867 0
-1.01244e-05 0.000245941 0
-1.73055e-05 0.000150046 0
-2.02652e-05 0.000246059 0
0 0 0
-6.55615e-06 1.9689e-05 0
0 0 0
-1.00004e-05 2.03924e-05 0
-6.55615e-06 1.9689e-05 0
-1.2994e-05 7.18937e-05 0
-1.00004e-05 2.03924e-05 0
-1.95248e-05 7.23147e-05 0
0 0 0
-1.00004e-05 2.03924e-05 0
0 0 0
-1.36782e-05 2.13865e-05 0
-1.00004e-05 2.03924e-05 0
-1.95248e-05 7.23147e-05 0
-1.36782e-05 2.13865e-05 0
-2.60662e-05 7.28888e-05 0
-1.2994e-05 7.18937e-05 0
-1.73055e-05 0.000150046 0
-1.95248e-05 7.23147e-05 0
-2.60066e-05 0.000150346 0
-1.73055e-05 0.000150046 0
-2.02652e-05 0.000246059 0
-2.60066e-05 0.000150346 0
-3.04374e-05 0.000246254 0
-1.95248e-05 7.23147e-05 0
-2.60066e-05 0.000150346 0
-2.60662e-05 7.28888e-05 0
-3.47814e-05 0.000150772 0
-2.60066e-05 0.000150346 0
-3.04374e-05 0.000246254 0
-3.47814e-05 0.000150772 0
-4.06509e-05 0.000246524 0
3.91324e-17 0.000245901 0
4.7437e-17 0.000353429 0
-1.01244e-05 0.000245941 0
-1.10329e-05 0.000353451 0
4.7437e-17 0.000353429 0
5.4216e-17 0.000467393 0
-1.10329e-05 0.000353451 0
-1.15114e-05 0.000467404 0
-1.01244e-05 0.000245941 0
-1.10329e-05 0.000353451 0
-2.02652e-05 0.000246059 0
-2.20767e-05 0.000353518 0
-1.10329e-05 0.000353451 0
-1.15114e-05 0.000467404 0
-2.20767e-05 0.000353518 0
-2.30306e-05 0.000467435 0
5.4216e-17 0.000467393 0
5.78935e-17 0.000584222 0
-1.15114e-05 0.000467404 0
-1.17049e-05 0.000584225 0
5.78935e-17 0.000584222 0
6.25337e-17 0.00070177 0
-1.17049e-05 0.000584225 0
-1.17528e-05 0.000701771 0
-1.15114e-05 0.000467404 0
-1.17049e-05 0.000584225 0
-2.30306e-05 0.000467435 0
-2.34135e-05 0.000584235 0
-1.17049e-05 0.000584225 0
-1.17528e-05 0.000701771 0
-2.34135e-05 0.000584235 0
-2.35066e-05 0.000701773 0
-2.02652e-05 0.000246059 0
-2.20767e-05 0.000353518 0
-3.04374e-05 0.000246254 0
-3.31428e-05 0.000353629 0
-2.20767e-05 0.000353518 0
-2.30306e-05 0.000467435 0
-3.31428e-05 0.000353629 0
-3.45653e-05 0.000467487 0
-3.04374e-05 0.000246254 0
-3.31428e-05 0.000353629 0
-4.06509e-05 0.000246524 0
-4.42442e-05 0.000353784 0
-3.31428e-05 0.000353629 0
-3.45653e-05 0.000467487 0
-4.42442e-05 0.000353784 0
-4.61227e-05 0.000467558 0
-2.30306e-05 0.000467435 0
-2.34135e-05 0.000584235 0
-3.45653e-05 0.000467487 0
-3.51294e-05 0.000584251 0
-2.34135e-05 0.000584235 0
-2.35066e-05 0.000701773 0
-3.51294e-05 0.000584251 0
-3.52624e-05 0.000701777 0
-3.45653e-05 0.000467487 0
-3.51294e-05 0.000584251 0
-4.61227e-05 0.000467558 0
-4.68562e-05 0.000584272 0
-3.51294e-05 0.000584251 0
-3.52624e-05 0.000701777 0
-4.68562e-05 0.000584272 0
-4.70205e-05 0.000701782 0
VECTORS velocity double
0 0 0
7.79315e-06 1.17392e-05 0
0 0 0
5.71497e-06 1.11629e-05 0
7.79315e-06 1.17392e-05 0
1.52136e-05 4.14798e-05 0
5.71497e-06 1.11629e-05 0
1.13916e-05 4.11295e-05 0
0 0 0
5.71497e-06 1.11629e-05 0
0 0 0
3.75423e-06 1.07549e-05 0
5.71497e-06 1.11629e-05 0
1.13916e-05 4.11295e-05 0
3.75423e-06 1.07549e-05 0
7.58017e-06 4.08743e-05 0
1.52136e-05 4.14798e-05 0
2.04687e-05 8.72632e-05 0
1.13916e-05 4.11295e-05 0
1.52977e-05 8.70123e-05 0
2.04687e-05 8.72632e-05 0
2.37638e-05 0.000143631 0
1.52977e-05 8.70123e-05 0
1.7785e-05 0.00014349 0
1.13916e-05 4.11295e-05 0
1.52977e-05 8.70123e-05 0
7.58017e-06 4.08743e-05 0
1.01758e-05 8.68355e-05 0
1.52977e-05 8.70123e-05 0
1.7785e-05 0.00014349 0
1.01758e-05 8.68355e-05 0
1.18376e-05 0.000143389 0
0 0 0
3.75423e-06 1.07549e-05 0
0 0 0
1.86147e-06 1.05117e-05 0
3.75423e-06 1.07549e-05 0
7.58017e-06 4.08743e-05 0
1.86147e-06 1.05117e-05 0
3.78489e-06 4.07193e-05 0
0 0 0
1.86147e-06 1.05117e-05 0
0 0 0
2.47527e-15 1.04309e-05 0
1.86147e-06 1.05117e-05 0
3.78489e-06 4.07193e-05 0
2.47527e-15 1.04309e-05 0
3.21897e-15 4.06673e-05 0
7.58017e-06 4.08743e-05 0
1.01758e-05 8.68355e-05 0
3.78489e-06 4.07193e-05 0
5.08152e-06 8.67302e-05 0
1.01758e-05 8.68355e-05 0
1.18376e-05 0.000143389 0
5.08152e-06 8.67302e-05 0
5.9129e-06 0.000143327 0
3.78489e-06 4.07193e-05 0
5.08152e-06 8.67302e-05 0
3.21897e-15 4.06673e-05 0
-2.33395e-15 8.66952e-05 0
5.08152e-06 8.67302e-05 0
5.9129e-06 0.000143327 0
-2.33395e-15 8.66952e-05 0
1.6143e-14 0.000143306 0
2.37638e-05 0.000143631 0
2.54437e-05 0.000205911 0
1.7785e-05 0.00014349 0
1.90597e-05 0.000205847 0
2.54437e-05 0.000205911 0
2.61242e-05 0.000270739 0
1.90597e-05 0.000205847 0
1.9584e-05 0.000270716 0
1.7785e-05 0.00014349 0
1.90597e-05 0.000205847 0
1.18376e-05 0.000143389 0
1.26959e-05 0.000205801 0
1.90597e-05 0.000205847 0
1.9584e-05 0.000270716 0
1.26959e-05 0.000205801 0
1.30515e-05 0.000270699 0
2.61242e-05 0.000270739 0
2.63529e-05 0.00033648 0
1.9584e-05 0.000270716 0
1.97611e-05 0.000336473 0
2.63529e-05 0.00033648 0
2.64086e-05 0.000402486 0
1.97611e-05 0.000336473 0
1.98052e-05 0.000402485 0
1.9584e-05 0.000270716 0
1.97611e-05 0.000336473 0
1.30515e-05 0.000270699 0
1.31724e-05 0.000336468 0
1.97611e-05 0.000336473 0
1.98052e-05 0.000402485 0
1.31724e-05 0.000336468 0
1.32028e-05 0.000402483 0
1.18376e-05 0.000143389 0
1.26959e-05 0.000205801 0
5.9129e-06 0.000143327 0
6.34477e-06 0.000205773 0
1.26959e-05 0.000205801 0
1.30515e-05 0.000270699 0
6.34477e-06 0.000205773 0
6.52438e-06 0.000270688 0
5.9129e-06 0.000143327 0
6.34477e-06 0.000205773 0
1.6143e-14 0.000143306 0
1.72997e-14 0.000205764 0
6.34477e-06 0.000205773 0
6.52438e-06 0.000270688 0
1.72997e-14 0.000205764 0
3.96736e-15 0.000270685 0
1.30515e-05 0.000270699 0
1.31724e-05 0.000336468 0
6.52438e-06 0.000270688 0
6.5857e-06 0.000336465 0
1.31724e-05 0.000336468 0
1.32028e-05 0.000402483 0
6.5857e-06 0.000336465 0
6.60118e-06 0.000402482 0
6.52438e-06 0.000270688 0
6.5857e-06 0.000336465 0
3.96736e-15 0.000270685 0
-2.41934e-16 0.000336464 0
6.5857e-06 0.000336465 0
6.60118e-06 0.000402482 0
-2.41934e-16 0.000336464 0
3.58179e-15 0.000402482 0
0 0 0
2.47527e-15 1.04309e-05 0
0 0 0
-1.86147e-06 1.05117e-05 0
2.47527e-15 1.04309e-05 0
3.21897e-15 4.06673e-05 0
-1.86147e-06 1.05117e-05 0
-3.78489e-06 4.07193e-05 0
0 0 0
-1.86147e-06 1.05117e-05 0
0 0 0
-3.75423e-06 1.07549e-05 0
-1.86147e-06 1.05117e-05 0
-3.78489e-06 4.07193e-05 0
-3.75423e-06 1.07549e-05 0
-7.58017e-06 4.08743e-05 0
3.21897e-15 4.06673e-05 0
-2.33395e-15 8.66952e-05 0
-3.78489e-06 4.07193e-05 0
-5.08152e-06 8.67302e-05 0
-2.33395e-15 8.66952e-05 0
1.6143e-14 0.000143306 0
-5.08152e-06 8.67302e-05 0
-5.9129e-06 0.000143327 0
-3.78489e-06 4.07193e-05 0
-5.08152e-06 8.67302e-05 0
-7.58017e-06 4.08743e-05 0
-1.01758e-05 8.68355e-05 0
-5.08152e-06 8.67302e-05 0
-5.9129e-06 0.000143327 0
-1.01758e-05 8.68355e-05 0
-1.18376e-05 0.000143389 0
0 0 0
-3.75423e-06 1.07549e-05 0
0 0 0
-5.71497e-06 1.11629e-05 0
-3.75423e-06 1.07549e-05 0
-7.58017e-06 4.08743e-05 0
-5.71497e-06 1.11629e-05 0
-1.13916e-05 4.11295e-05 0
0 0 0
-5.71497e-06 1.11629e-05 0
0 0 0
-7.79315e-06 1.17392e-05 0
-5.71497e-06 1.11629e-05 0
-1.13916e-05 4.11295e-05 0
-7.79315e-06 1.17392e-05 0
-1.52136e-05 4.14798e-05 0
-7.58017e-06 4.08743e-05 0
-1.01758e-05 8.68355e-05 0
-1.13916e-05 4.11295e-05 0
-1.52977e-05 8.70123e-05 0
-1.01758e-05 8.68355e-05 0
-1.18376e-05 0.000143389 0
-1.52977e-05 8.70123e-05 0
-1.7785e-05 0.00014349 0
-1.13916e-05 4.11295e-05 0
-1.52977e-05 8.70123e-05 0
-1.52136e-05 4.14798e-05 0
-2.04687e-05 8.72632e-05 0
-1.52977e-05 8.70123e-05 0
-1.7785e-05 0.00014349 0
-2.04687e-05 8.72632e-05 0
-2.37638e-05 0.000143631 0
1.6143e-14 0.000143306 0
1.72997e-14 0.000205764 0
-5.9129e-06 0.000143327 0
-6.34477e-06 0.000205773 0
1.72997e-14 0.000205764 0
3.96736e-15 0.000270685 0
-6.34477e-06 0.000205773 0
-6.52438e-06 0.000270688 0
-5.9129e-06 0.000143327 0
-6.34477e-06 0.000205773 0
-1.18376e-05 0.000143389 0
-1.26959e-05 0.000205801 0
-6.34477e-06 0.000205773 0
-6.52438e-06 0.000270688 0
-1.26959e-05 0.000205801 0
-1.30515e-05 0.000270699 0
3.96736e-15 0.000270685 0
-2.41934e-16 0.000336464 0
-6.52438e-06 0.000270688 0
-6.5857e-06 0.000336465 0
-2.41934e-16 0.000336464 0
3.58179e-15 0.000402482 0
-6.5857e-06 0.000336465 0
-6.60118e-06 0.000402482 0
-6.52438e-06 0.000270688 0
-6.5857e-06 0.000336465 0
-1.30515e-05 0.000270699 0
-1.31724e-05 0.000336468 0
-6.5857e-06 0.000336465 0
-6.60118e-06 0.000402482 0
-1.31724e-05 0.000336468 0
-1.32028e-05 0.000402483 0
-1.18376e-05 0.000143389 0
-1.26959e-05 0.000205801 0
-1.7785e-05 0.00014349 0
-1.90597e-05 0.000205847 0
-1.26959e-05 0.000205801 0
-1.30515e-05 0.000270699 0
-1.90597e-05 0.000205847 0
-1.9584e-05 0.000270716 0
-1.7785e-05 0.00014349 0
-1.90597e-05 0.000205847 0
-2.37638e-05 0.000143631 0
-2.54437e-05 0.000205911 0
-1.90597e-05 0.000205847 0
-1.9584e-05 0.000270716 0
-2.54437e-05 0.000205911 0
-2.61242e-05 0.000270739 0
-1.30515e-05 0.000270699 0
-1.31724e-05 0.000336468 0
-1.9584e-05 0.000270716 0
-1.97611e-05 0.000336473 0
-1.31724e-05 0.000336468 0
-1.32028e-05 0.000402483 0
-1.97611e-05 0.000336473 0
-1.98052e-05 0.000402485 0
-1.9584e-05 0.000270716 0
-1.97611e-05 0.000336473 0
-2.61242e-05 0.000270739 0
-2.63529e-05 0.00033648 0
-1.97611e-05 0.000336473 0
-1.98052e-05 0.000402485 0
-2.63529e-05 0.00033648 0
-2.64086e-05 0.000402486 0
