# vtk DataFile Version 3.0
#This file was generated by the deal.II library on 2025/3/10 at 16:40:13
ASCII
DATASET UNSTRUCTURED_GRID

FIELD FieldData 1
TIME 1 1 double
4.34203
POINTS 256 double
0 0 0
0.625 0 0
0 0.0625 0
0.625 0.0625 0
0.625 0 0
1.25 0 0
0.625 0.0625 0
1.25 0.0625 0
0 0.0625 0
0.625 0.0625 0
0 0.125 0
0.625 0.125 0
0.625 0.0625 0
1.25 0.0625 0
0.625 0.125 0
1.25 0.125 0
1.25 0 0
1.875 0 0
1.25 0.0625 0
1.875 0.0625 0
1.875 0 0
2.5 0 0
1.875 0.0625 0
2.5 0.0625 0
1.25 0.0625 0
1.875 0.0625 0
1.25 0.125 0
1.875 0.125 0
1.875 0.0625 0
2.5 0.0625 0
1.875 0.125 0
2.5 0.125 0
0 0.125 0
0.625 0.125 0
0 0.1875 0
0.625 0.1875 0
0.625 0.125 0
1.25 0.125 0
0.625 0.1875 0
1.25 0.1875 0
0 0.1875 0
0.625 0.1875 0
0 0.25 0
0.625 0.25 0
0.625 0.1875 0
1.25 0.1875 0
0.625 0.25 0
1.25 0.25 0
1.25 0.125 0
1.875 0.125 0
1.25 0.1875 0
1.875 0.1875 0
1.875 0.125 0
2.5 0.125 0
1.875 0.1875 0
2.5 0.1875 0
1.25 0.1875 0
1.875 0.1875 0
1.25 0.25 0
1.875 0.25 0
1.875 0.1875 0
2.5 0.1875 0
1.875 0.25 0
2.5 0.25 0
2.5 0 0
3.125 0 0
2.5 0.0625 0
3.125 0.0625 0
3.125 0 0
3.75 0 0
3.125 0.0625 0
3.75 0.0625 0
2.5 0.0625 0
3.125 0.0625 0
2.5 0.125 0
3.125 0.125 0
3.125 0.0625 0
3.75 0.0625 0
3.125 0.125 0
3.75 0.125 0
3.75 0 0
4.375 0 0
3.75 0.0625 0
4.375 0.0625 0
4.375 0 0
5 0 0
4.375 0.0625 0
5 0.0625 0
3.75 0.0625 0
4.375 0.0625 0
3.75 0.125 0
4.375 0.125 0
4.375 0.0625 0
5 0.0625 0
4.375 0.125 0
5 0.125 0
2.5 0.125 0
3.125 0.125 0
2.5 0.1875 0
3.125 0.1875 0
3.125 0.125 0
3.75 0.125 0
3.125 0.1875 0
3.75 0.1875 0
2.5 0.1875 0
3.125 0.1875 0
2.5 0.25 0
3.125 0.25 0
3.125 0.1875 0
3.75 0.1875 0
3.125 0.25 0
3.75 0.25 0
3.75 0.125 0
4.375 0.125 0
3.75 0.1875 0
4.375 0.1875 0
4.375 0.125 0
5 0.125 0
4.375 0.1875 0
5 0.1875 0
3.75 0.1875 0
4.375 0.1875 0
3.75 0.25 0
4.375 0.25 0
4.375 0.1875 0
5 0.1875 0
4.375 0.25 0
5 0.25 0
0 0.25 0
0.625 0.25 0
0 0.3125 0
0.625 0.3125 0
0.625 0.25 0
1.25 0.25 0
0.625 0.3125 0
1.25 0.3125 0
0 0.3125 0
0.625 0.3125 0
0 0.375 0
0.625 0.375 0
0.625 0.3125 0
1.25 0.3125 0
0.625 0.375 0
1.25 0.375 0
1.25 0.25 0
1.875 0.25 0
1.25 0.3125 0
1.875 0.3125 0
1.875 0.25 0
2.5 0.25 0
1.875 0.3125 0
2.5 0.3125 0
1.25 0.3125 0
1.875 0.3125 0
1.25 0.375 0
1.875 0.375 0
1.875 0.3125 0
2.5 0.3125 0
1.875 0.375 0
2.5 0.375 0
0 0.375 0
0.625 0.375 0
0 0.4375 0
0.625 0.4375 0
0.625 0.375 0
1.25 0.375 0
0.625 0.4375 0
1.25 0.4375 0
0 0.4375 0
0.625 0.4375 0
0 0.5 0
0.625 0.5 0
0.625 0.4375 0
1.25 0.4375 0
0.625 0.5 0
1.25 0.5 0
1.25 0.375 0
1.875 0.375 0
1.25 0.4375 0
1.875 0.4375 0
1.875 0.375 0
2.5 0.375 0
1.875 0.4375 0
2.5 0.4375 0
1.25 0.4375 0
1.875 0.4375 0
1.25 0.5 0
1.875 0.5 0
1.875 0.4375 0
2.5 0.4375 0
1.875 0.5 0
2.5 0.5 0
2.5 0.25 0
3.125 0.25 0
2.5 0.3125 0
3.125 0.3125 0
3.125 0.25 0
3.75 0.25 0
3.125 0.3125 0
3.75 0.3125 0
2.5 0.3125 0
3.125 0.3125 0
2.5 0.375 0
3.125 0.375 0
3.125 0.3125 0
3.75 0.3125 0
3.125 0.375 0
3.75 0.375 0
3.75 0.25 0
4.375 0.25 0
3.75 0.3125 0
4.375 0.3125 0
4.375 0.25 0
5 0.25 0
4.375 0.3125 0
5 0.3125 0
3.75 0.3125 0
4.375 0.3125 0
3.75 0.375 0
4.375 0.375 0
4.375 0.3125 0
5 0.3125 0
4.375 0.375 0
5 0.375 0
2.5 0.375 0
3.125 0.375 0
2.5 0.4375 0
3.125 0.4375 0
3.125 0.375 0
3.75 0.375 0
3.125 0.4375 0
3.75 0.4375 0
2.5 0.4375 0
3.125 0.4375 0
2.5 0.5 0
3.125 0.5 0
3.125 0.4375 0
3.75 0.4375 0
3.125 0.5 0
3.75 0.5 0
3.75 0.375 0
4.375 0.375 0
3.75 0.4375 0
4.375 0.4375 0
4.375 0.375 0
5 0.375 0
4.375 0.4375 0
5 0.4375 0
3.75 0.4375 0
4.375 0.4375 0
3.75 0.5 0
4.375 0.5 0
4.375 0.4375 0
5 0.4375 0
4.375 0.5 0
5 0.5 0

CELLS 64 320
4	0	1	3	2
4	4	5	7	6
4	8	9	11	10
4	12	13	15	14
4	16	17	19	18
4	20	21	23	22
4	24	25	27	26
4	28	29	31	30
4	32	33	35	34
4	36	37	39	38
4	40	41	43	42
4	44	45	47	46
4	48	49	51	50
4	52	53	55	54
4	56	57	59	58
4	60	61	63	62
4	64	65	67	66
4	68	69	71	70
4	72	73	75	74
4	76	77	79	78
4	80	81	83	82
4	84	85	87	86
4	88	89	91	90
4	92	93	95	94
4	96	97	99	98
4	100	101	103	102
4	104	105	107	106
4	108	109	111	110
4	112	113	115	114
4	116	117	119	118
4	120	121	123	122
4	124	125	127	126
4	128	129	131	130
4	132	133	135	134
4	136	137	139	138
4	140	141	143	142
4	144	145	147	146
4	148	149	151	150
4	152	153	155	154
4	156	157	159	158
4	160	161	163	162
4	164	165	167	166
4	168	169	171	170
4	172	173	175	174
4	176	177	179	178
4	180	181	183	182
4	184	185	187	186
4	188	189	191	190
4	192	193	195	194
4	196	197	199	198
4	200	201	203	202
4	204	205	207	206
4	208	209	211	210
4	212	213	215	214
4	216	217	219	218
4	220	221	223	222
4	224	225	227	226
4	228	229	231	230
4	232	233	235	234
4	236	237	239	238
4	240	241	243	242
4	244	245	247	246
4	248	249	251	250
4	252	253	255	254

CELL_TYPES 64
 9 9 9 9 9 9 9 9 9 9 9 9 9 9 9 9 9 9 9 9 9 9 9 9 9 9 9 9 9 9 9 9 9 9 9 9 9 9 9 9 9 9 9 9 9 9 9 9 9 9 9 9 9 9 9 9 9 9 9 9 9 9 9 9
POINT_DATA 256
VECTORS displacement double
0 0 0
-1.31541e-05 -2.05832e-05 0
0 0 0
-9.61646e-06 -1.96277e-05 0
-1.31541e-05 -2.05832e-05 0
-2.50488e-05 -7.00972e-05 0
-9.61646e-06 -1.96277e-05 0
-1.87625e-05 -6.95465e-05 0
0 0 0
-9.61646e-06 -1.96277e-05 0
0 0 0
-6.30414e-06 -1.89515e-05 0
-9.61646e-06 -1.96277e-05 0
-1.87625e-05 -6.95465e-05 0
-6.30414e-06 -1.89515e-05 0
-1.24866e-05 -6.91427e-05 0
-2.50488e-05 -7.00972e-05 0
-3.34013e-05 -0.000144917 0
-1.87625e-05 -6.95465e-05 0
-2.49745e-05 -0.000144509 0
-3.34013e-05 -0.000144917 0
-3.90156e-05 -0.000236842 0
-2.49745e-05 -0.000144509 0
-2.9213e-05 -0.000236584 0
-1.87625e-05 -6.95465e-05 0
-2.49745e-05 -0.000144509 0
-1.24866e-05 -6.91427e-05 0
-1.66186e-05 -0.000144221 0
-2.49745e-05 -0.000144509 0
-2.9213e-05 -0.000236584 0
-1.66186e-05 -0.000144221 0
-1.945e-05 -0.000236397 0
0 0 0
-6.30414e-06 -1.89515e-05 0
0 0 0
-3.12211e-06 -1.85487e-05 0
-6.30414e-06 -1.89515e-05 0
-1.24866e-05 -6.91427e-05 0
-3.12211e-06 -1.85487e-05 0
-6.23504e-06 -6.88965e-05 0
0 0 0
-3.12211e-06 -1.85487e-05 0
0 0 0
-1.37114e-17 -1.84149e-05 0
-3.12211e-06 -1.85487e-05 0
-6.23504e-06 -6.88965e-05 0
-1.37114e-17 -1.84149e-05 0
-2.79644e-17 -6.88137e-05 0
-1.24866e-05 -6.91427e-05 0
-1.66186e-05 -0.000144221 0
-6.23504e-06 -6.88965e-05 0
-8.30084e-06 -0.00014405 0
-1.66186e-05 -0.000144221 0
-1.945e-05 -0.000236397 0
-8.30084e-06 -0.00014405 0
-9.71711e-06 -0.000236285 0
-6.23504e-06 -6.88965e-05 0
-8.30084e-06 -0.00014405 0
-2.79644e-17 -6.88137e-05 0
-3.58983e-17 -0.000143993 0
-8.30084e-06 -0.00014405 0
-9.71711e-06 -0.000236285 0
-3.58983e-17 -0.000143993 0
-4.7704e-17 -0.000236247 0
-3.90156e-05 -0.000236842 0
-4.24456e-05 -0.000339761 0
-2.9213e-05 -0.000236584 0
-3.17956e-05 -0.000339614 0
-4.24456e-05 -0.000339761 0
-4.4235e-05 -0.000448891 0
-3.17956e-05 -0.000339614 0
-3.31507e-05 -0.000448824 0
-2.9213e-05 -0.000236584 0
-3.17956e-05 -0.000339614 0
-1.945e-05 -0.000236397 0
-2.11794e-05 -0.000339508 0
-3.17956e-05 -0.000339614 0
-3.31507e-05 -0.000448824 0
-2.11794e-05 -0.000339508 0
-2.20882e-05 -0.000448774 0
-4.4235e-05 -0.000448891 0
-4.49321e-05 -0.000560817 0
-3.31507e-05 -0.000448824 0
-3.36869e-05 -0.000560797 0
-4.49321e-05 -0.000560817 0
-4.50879e-05 -0.000673497 0
-3.36869e-05 -0.000560797 0
-3.38131e-05 -0.000673493 0
-3.31507e-05 -0.000448824 0
-3.36869e-05 -0.000560797 0
-2.20882e-05 -0.000448774 0
-2.24522e-05 -0.000560782 0
-3.36869e-05 -0.000560797 0
-3.38131e-05 -0.000673493 0
-2.24522e-05 -0.000560782 0
-2.25405e-05 -0.000673489 0
-1.945e-05 -0.000236397 0
-2.11794e-05 -0.000339508 0
-9.71711e-06 -0.000236285 0
-1.05845e-05 -0.000339444 0
-2.11794e-05 -0.000339508 0
-2.20882e-05 -0.000448774 0
-1.05845e-05 -0.000339444 0
-1.10404e-05 -0.000448744 0
-9.71711e-06 -0.000236285 0
-1.05845e-05 -0.000339444 0
-4.7704e-17 -0.000236247 0
-5.76842e-17 -0.000339423 0
-1.05845e-05 -0.000339444 0
-1.10404e-05 -0.000448744 0
-5.76842e-17 -0.000339423 0
-6.16783e-17 -0.000448734 0
-2.20882e-05 -0.000448774 0
-2.24522e-05 -0.000560782 0
-1.10404e-05 -0.000448744 0
-1.12243e-05 -0.000560773 0
-2.24522e-05 -0.000560782 0
-2.25405e-05 -0.000673489 0
-1.12243e-05 -0.000560773 0
-1.12698e-05 -0.000673487 0
-1.10404e-05 -0.000448744 0
-1.12243e-05 -0.000560773 0
-6.16783e-17 -0.000448734 0
-6.55264e-17 -0.000560769 0
-1.12243e-05 -0.000560773 0
-1.12698e-05 -0.000673487 0
-6.55264e-17 -0.000560769 0
-6.34527e-17 -0.000673486 0
0 0 0
-1.37114e-17 -1.84149e-05 0
0 0 0
3.12211e-06 -1.85487e-05 0
-1.37114e-17 -1.84149e-05 0
-2.79644e-17 -6.88137e-05 0
3.12211e-06 -1.85487e-05 0
6.23504e-06 -6.88965e-05 0
0 0 0
3.12211e-06 -1.85487e-05 0
0 0 0
6.30414e-06 -1.89515e-05 0
3.12211e-06 -1.85487e-05 0
6.23504e-06 -6.88965e-05 0
6.30414e-06 -1.89515e-05 0
1.24866e-05 -6.91427e-05 0
-2.79644e-17 -6.88137e-05 0
-3.58983e-17 -0.000143993 0
6.23504e-06 -6.88965e-05 0
8.30084e-06 -0.00014405 0
-3.58983e-17 -0.000143993 0
-4.7704e-17 -0.000236247 0
8.30084e-06 -0.00014405 0
9.71711e-06 -0.000236285 0
6.23504e-06 -6.88965e-05 0
8.30084e-06 -0.00014405 0
1.24866e-05 -6.91427e-05 0
1.66186e-05 -0.000144221 0
8.30084e-06 -0.00014405 0
9.71711e-06 -0.000236285 0
1.66186e-05 -0.000144221 0
1.945e-05 -0.000236397 0
0 0 0
6.30414e-06 -1.89515e-05 0
0 0 0
9.61646e-06 -1.96277e-05 0
6.30414e-06 -1.89515e-05 0
1.24866e-05 -6.91427e-05 0
9.61646e-06 -1.96277e-05 0
1.87625e-05 -6.95465e-05 0
0 0 0
9.61646e-06 -1.96277e-05 0
0 0 0
1.31541e-05 -2.05832e-05 0
9.61646e-06 -1.96277e-05 0
1.87625e-05 -6.95465e-05 0
1.31541e-05 -2.05832e-05 0
2.50488e-05 -7.00972e-05 0
1.24866e-05 -6.91427e-05 0
1.66186e-05 -0.000144221 0
1.87625e-05 -6.95465e-05 0
2.49745e-05 -0.000144509 0
1.66186e-05 -0.000144221 0
1.945e-05 -0.000236397 0
2.49745e-05 -0.000144509 0
2.9213e-05 -0.000236584 0
1.87625e-05 -6.95465e-05 0
2.49745e-05 -0.000144509 0
2.50488e-05 -7.00972e-05 0
3.34013e-05 -0.000144917 0
2.49745e-05 -0.000144509 0
2.9213e-05 -0.000236584 0
3.34013e-05 -0.000144917 0
3.90156e-05 -0.000236842 0
-4.7704e-17 -0.000236247 0
-5.76842e-17 -0.000339423 0
9.71711e-06 -0.000236285 0
1.05845e-05 -0.000339444 0
-5.76842e-17 -0.000339423 0
-6.16783e-17 -0.000448734 0
1.05845e-05 -0.000339444 0
1.10404e-05 -0.000448744 0
9.71711e-06 -0.000236285 0
1.05845e-05 -0.000339444 0
1.945e-05 -0.000236397 0
2.11794e-05 -0.000339508 0
1.05845e-05 -0.000339444 0
1.10404e-05 -0.000448744 0
2.11794e-05 -0.000339508 0
2.20882e-05 -0.000448774 0
-6.16783e-17 -0.000448734 0
-6.55264e-17 -0.000560769 0
1.10404e-05 -0.000448744 0
1.12243e-05 -0.000560773 0
-6.55264e-17 -0.000560769 0
-6.34527e-17 -0.000673486 0
1.12243e-05 -0.000560773 0
1.12698e-05 -0.000673487 0
1.10404e-05 -0.000448744 0
1.12243e-05 -0.000560773 0
2.20882e-05 -0.000448774 0
2.24522e-05 -0.000560782 0
1.12243e-05 -0.000560773 0
1.12698e-05 -0.000673487 0
2.24522e-05 -0.000560782 0
2.25405e-05 -0.000673489 0
1.945e-05 -0.000236397 0
2.11794e-05 -0.000339508 0
2.9213e-05 -0.000236584 0
3.17956e-05 -0.000339614 0
2.11794e-05 -0.000339508 0
2.20882e-05 -0.000448774 0
3.17956e-05 -0.000339614 0
3.31507e-05 -0.000448824 0
2.9213e-05 -0.000236584 0
3.17956e-05 -0.000339614 0
3.90156e-05 -0.000236842 0
4.24456e-05 -0.000339761 0
3.17956e-05 -0.000339614 0
3.31507e-05 -0.000448824 0
4.24456e-05 -0.000339761 0
4.4235e-05 -0.000448891 0
2.20882e-05 -0.000448774 0
2.24522e-05 -0.000560782 0
3.31507e-05 -0.000448824 0
3.36869e-05 -0.000560797 0
2.24522e-05 -0.000560782 0
2.25405e-05 -0.000673489 0
3.36869e-05 -0.000560797 0
3.38131e-05 -0.000673493 0
3.31507e-05 -0.000448824 0
3.36869e-05 -0.000560797 0
4.4235e-05 -0.000448891 0
4.49321e-05 -0.000560817 0
3.36869e-05 -0.000560797 0
3.38131e-05 -0.000673493 0
4.49321e-05 -0.000560817 0
4.50879e-05 -0.000673497 0
VECTORS velocity double
0 0 0
-1.59005e-05 -2.3583e-05 0
0 0 0
-1.16844e-05 -2.23906e-05 0
-1.59005e-05 -2.3583e-05 0
-3.18457e-05 -8.46629e-05 0
-1.16844e-05 -2.23906e-05 0
-2.38711e-05 -8.38702e-05 0
0 0 0
-1.16844e-05 -2.23906e-05 0
0 0 0
-7.68674e-06 -2.1545e-05 0
-1.16844e-05 -2.23906e-05 0
-2.38711e-05 -8.38702e-05 0
-7.68674e-06 -2.1545e-05 0
-1.5897e-05 -8.32942e-05 0
-3.18457e-05 -8.46629e-05 0
-4.44142e-05 -0.000181826 0
-2.38711e-05 -8.38702e-05 0
-3.32218e-05 -0.000181179 0
-4.44142e-05 -0.000181826 0
-5.38192e-05 -0.000306433 0
-3.32218e-05 -0.000181179 0
-4.02949e-05 -0.000305977 0
-2.38711e-05 -8.38702e-05 0
-3.32218e-05 -0.000181179 0
-1.5897e-05 -8.32942e-05 0
-2.21113e-05 -0.000180722 0
-3.32218e-05 -0.000181179 0
-4.02949e-05 -0.000305977 0
-2.21113e-05 -0.000180722 0
-2.68278e-05 -0.000305649 0
0 0 0
-7.68674e-06 -2.1545e-05 0
0 0 0
-3.8146e-06 -2.10404e-05 0
-7.68674e-06 -2.1545e-05 0
-1.5897e-05 -8.32942e-05 0
-3.8146e-06 -2.10404e-05 0
-7.94157e-06 -8.29449e-05 0
0 0 0
-3.8146e-06 -2.10404e-05 0
0 0 0
-6.65487e-15 -2.08727e-05 0
-3.8146e-06 -2.10404e-05 0
-7.94157e-06 -8.29449e-05 0
-6.65487e-15 -2.08727e-05 0
2.48881e-15 -8.28279e-05 0
-1.5897e-05 -8.32942e-05 0
-2.21113e-05 -0.000180722 0
-7.94157e-06 -8.29449e-05 0
-1.10456e-05 -0.000180449 0
-2.21113e-05 -0.000180722 0
-2.68278e-05 -0.000305649 0
-1.10456e-05 -0.000180449 0
-1.3403e-05 -0.000305451 0
-7.94157e-06 -8.29449e-05 0
-1.10456e-05 -0.000180449 0
2.48881e-15 -8.28279e-05 0
1.08149e-15 -0.000180359 0
-1.10456e-05 -0.000180449 0
-1.3403e-05 -0.000305451 0
1.08149e-15 -0.000180359 0
1.57878e-14 -0.000305385 0
-5.38192e-05 -0.000306433 0
-6.01634e-05 -0.000450591 0
-4.02949e-05 -0.000305977 0
-4.50573e-05 -0.000450305 0
-6.01634e-05 -0.000450591 0
-6.37615e-05 -0.000606949 0
-4.50573e-05 -0.000450305 0
-4.77692e-05 -0.000606808 0
-4.02949e-05 -0.000305977 0
-4.50573e-05 -0.000450305 0
-2.68278e-05 -0.000305649 0
-3.00078e-05 -0.0004501 0
-4.50573e-05 -0.000450305 0
-4.77692e-05 -0.000606808 0
-3.00078e-05 -0.0004501 0
-3.18213e-05 -0.000606707 0
-6.37615e-05 -0.000606949 0
-6.52172e-05 -0.000769167 0
-4.77692e-05 -0.000606808 0
-4.88866e-05 -0.000769125 0
-6.52172e-05 -0.000769167 0
-6.55324e-05 -0.000932921 0
-4.88866e-05 -0.000769125 0
-4.9144e-05 -0.000932913 0
-4.77692e-05 -0.000606808 0
-4.88866e-05 -0.000769125 0
-3.18213e-05 -0.000606707 0
-3.25785e-05 -0.000769094 0
-4.88866e-05 -0.000769125 0
-4.9144e-05 -0.000932913 0
-3.25785e-05 -0.000769094 0
-3.27599e-05 -0.000932905 0
-2.68278e-05 -0.000305649 0
-3.00078e-05 -0.0004501 0
-1.3403e-05 -0.000305451 0
-1.49949e-05 -0.000449978 0
-3.00078e-05 -0.0004501 0
-3.18213e-05 -0.000606707 0
-1.49949e-05 -0.000449978 0
-1.59033e-05 -0.000606645 0
-1.3403e-05 -0.000305451 0
-1.49949e-05 -0.000449978 0
1.57878e-14 -0.000305385 0
-3.94419e-15 -0.000449937 0
-1.49949e-05 -0.000449978 0
-1.59033e-05 -0.000606645 0
-3.94419e-15 -0.000449937 0
2.88755e-14 -0.000606625 0
-3.18213e-05 -0.000606707 0
-3.25785e-05 -0.000769094 0
-1.59033e-05 -0.000606645 0
-1.62855e-05 -0.000769074 0
-3.25785e-05 -0.000769094 0
-3.27599e-05 -0.000932905 0
-1.62855e-05 -0.000769074 0
-1.6379e-05 -0.000932901 0
-1.59033e-05 -0.000606645 0
-1.62855e-05 -0.000769074 0
2.88755e-14 -0.000606625 0
2.03776e-15 -0.000769067 0
-1.62855e-05 -0.000769074 0
-1.6379e-05 -0.000932901 0
2.03776e-15 -0.000769067 0
1.23713e-15 -0.000932899 0
0 0 0
-6.65487e-15 -2.08727e-05 0
0 0 0
3.8146e-06 -2.10404e-05 0
-6.65487e-15 -2.08727e-05 0
2.48881e-15 -8.28279e-05 0
3.8146e-06 -2.10404e-05 0
7.94157e-06 -8.29449e-05 0
0 0 0
3.8146e-06 -2.10404e-05 0
0 0 0
7.68674e-06 -2.1545e-05 0
3.8146e-06 -2.10404e-05 0
7.94157e-06 -8.29449e-05 0
7.68674e-06 -2.1545e-05 0
1.5897e-05 -8.32942e-05 0
2.48881e-15 -8.28279e-05 0
1.08149e-15 -0.000180359 0
7.94157e-06 -8.29449e-05 0
1.10456e-05 -0.000180449 0
1.08149e-15 -0.000180359 0
1.57878e-14 -0.000305385 0
1.10456e-05 -0.000180449 0
1.3403e-05 -0.000305451 0
7.94157e-06 -8.29449e-05 0
1.10456e-05 -0.000180449 0
1.5897e-05 -8.32942e-05 0
2.21113e-05 -0.000180722 0
1.10456e-05 -0.000180449 0
1.3403e-05 -0.000305451 0
2.21113e-05 -0.000180722 0
2.68278e-05 -0.000305649 0
0 0 0
7.68674e-06 -2.1545e-05 0
0 0 0
1.16844e-05 -2.23906e-05 0
7.68674e-06 -2.1545e-05 0
1.5897e-05 -8.32942e-05 0
1.16844e-05 -2.23906e-05 0
2.38711e-05 -8.38702e-05 0
0 0 0
1.16844e-05 -2.23906e-05 0
0 0 0
1.59005e-05 -2.3583e-05 0
1.16844e-05 -2.23906e-05 0
2.38711e-05 -8.38702e-05 0
1.59005e-05 -2.3583e-05 0
3.18457e-05 -8.46629e-05 0
1.5897e-05 -8.32942e-05 0
2.21113e-05 -0.000180722 0
2.38711e-05 -8.38702e-05 0
3.32218e-05 -0.000181179 0
2.21113e-05 -0.000180722 0
2.68278e-05 -0.000305649 0
3.32218e-05 -0.000181179 0
4.02949e-05 -0.000305977 0
2.38711e-05 -8.38702e-05 0
3.32218e-05 -0.000181179 0
3.18457e-05 -8.46629e-05 0
4.44142e-05 -0.000181826 0
3.32218e-05 -0.000181179 0
4.02949e-05 -0.000305977 0
4.44142e-05 -0.000181826 0
5.38192e-05 -0.000306433 0
1.57878e-14 -0.000305385 0
-3.94419e-15 -0.000449937 0
1.3403e-05 -0.000305451 0
1.49949e-05 -0.000449978 0
-3.94419e-15 -0.000449937 0
2.88755e-14 -0.000606625 0
1.49949e-05 -0.000449978 0
1.59033e-05 -0.000606645 0
1.3403e-05 -0.000305451 0
1.49949e-05 -0.000449978 0
2.68278e-05 -0.000305649 0
3.00078e-05 -0.0004501 0
1.49949e-05 -0.000449978 0
1.59033e-05 -0.000606645 0
3.00078e-05 -0.0004501 0
3.18213e-05 -0.000606707 0
2.88755e-14 -0.000606625 0
2.03776e-15 -0.000769067 0
1.59033e-05 -0.000606645 0
1.62855e-05 -0.000769074 0
2.03776e-15 -0.000769067 0
1.23713e-15 -0.000932899 0
1.62855e-05 -0.000769074 0
1.6379e-05 -0.000932901 0
1.59033e-05 -0.000606645 0
1.62855e-05 -0.000769074 0
3.18213e-05 -0.000606707 0
3.25785e-05 -0.000769094 0
1.62855e-05 -0.000769074 0
1.6379e-05 -0.000932901 0
3.25785e-05 -0.000769094 0
3.27599e-05 -0.000932905 0
2.68278e-05 -0.000305649 0
3.00078e-05 -0.0004501 0
4.02949e-05 -0.000305977 0
4.50573e-05 -0.000450305 0
3.00078e-05 -0.0004501 0
3.18213e-05 -0.000606707 0
4.50573e-05 -0.000450305 0
4.77692e-05 -0.000606808 0
4.02949e-05 -0.000305977 0
4.50573e-05 -0.000450305 0
5.38192e-05 -0.000306433 0
6.01634e-05 -0.000450591 0
4.50573e-05 -0.000450305 0
4.77692e-05 -0.000606808 0
6.01634e-05 -0.000450591 0
6.37615e-05 -0.000606949 0
3.18213e-05 -0.000606707 0
3.25785e-05 -0.000769094 0
4.77692e-05 -0.000606808 0
4.88866e-05 -0.000769125 0
3.25785e-05 -0.000769094 0
3.27599e-05 -0.000932905 0
4.88866e-05 -0.000769125 0
4.9144e-05 -0.000932913 0
4.77692e-05 -0.000606808 0
4.88866e-05 -0.000769125 0
6.37615e-05 -0.000606949 0
6.52172e-05 -0.000769167 0
4.88866e-05 -0.000769125 0
4.9144e-05 -0.000932913 0
6.52172e-05 -0.000769167 0
6.55324e-05 -0.000932921 0
