# vtk DataFile Version 3.0
#This file was generated by the deal.II library on 2025/3/10 at 16:34:25
ASCII
DATASET UNSTRUCTURED_GRID

FIELD FieldData 1
TIME 1 1 double
2.08516
POINTS 256 double
0 0 0
0.625 0 0
0 0.0625 0
0.625 0.0625 0
0.625 0 0
1.25 0 0
0.625 0.0625 0
1.25 0.0625 0
0 0.0625 0
0.625 0.0625 0
0 0.125 0
0.625 0.125 0
0.625 0.0625 0
1.25 0.0625 0
0.625 0.125 0
1.25 0.125 0
1.25 0 0
1.875 0 0
1.25 0.0625 0
1.875 0.0625 0
1.875 0 0
2.5 0 0
1.875 0.0625 0
2.5 0.0625 0
1.25 0.0625 0
1.875 0.0625 0
1.25 0.125 0
1.875 0.125 0
1.875 0.0625 0
2.5 0.0625 0
1.875 0.125 0
2.5 0.125 0
0 0.125 0
0.625 0.125 0
0 0.1875 0
0.625 0.1875 0
0.625 0.125 0
1.25 0.125 0
0.625 0.1875 0
1.25 0.1875 0
0 0.1875 0
0.625 0.1875 0
0 0.25 0
0.625 0.25 0
0.625 0.1875 0
1.25 0.1875 0
0.625 0.25 0
1.25 0.25 0
1.25 0.125 0
1.875 0.125 0
1.25 0.1875 0
1.875 0.1875 0
1.875 0.125 0
2.5 0.125 0
1.875 0.1875 0
2.5 0.1875 0
1.25 0.1875 0
1.875 0.1875 0
1.25 0.25 0
1.875 0.25 0
1.875 0.1875 0
2.5 0.1875 0
1.875 0.25 0
2.5 0.25 0
2.5 0 0
3.125 0 0
2.5 0.0625 0
3.125 0.0625 0
3.125 0 0
3.75 0 0
3.125 0.0625 0
3.75 0.0625 0
2.5 0.0625 0
3.125 0.0625 0
2.5 0.125 0
3.125 0.125 0
3.125 0.0625 0
3.75 0.0625 0
3.125 0.125 0
3.75 0.125 0
3.75 0 0
4.375 0 0
3.75 0.0625 0
4.375 0.0625 0
4.375 0 0
5 0 0
4.375 0.0625 0
5 0.0625 0
3.75 0.0625 0
4.375 0.0625 0
3.75 0.125 0
4.375 0.125 0
4.375 0.0625 0
5 0.0625 0
4.375 0.125 0
5 0.125 0
2.5 0.125 0
3.125 0.125 0
2.5 0.1875 0
3.125 0.1875 0
3.125 0.125 0
3.75 0.125 0
3.125 0.1875 0
3.75 0.1875 0
2.5 0.1875 0
3.125 0.1875 0
2.5 0.25 0
3.125 0.25 0
3.125 0.1875 0
3.75 0.1875 0
3.125 0.25 0
3.75 0.25 0
3.75 0.125 0
4.375 0.125 0
3.75 0.1875 0
4.375 0.1875 0
4.375 0.125 0
5 0.125 0
4.375 0.1875 0
5 0.1875 0
3.75 0.1875 0
4.375 0.1875 0
3.75 0.25 0
4.375 0.25 0
4.375 0.1875 0
5 0.1875 0
4.375 0.25 0
5 0.25 0
0 0.25 0
0.625 0.25 0
0 0.3125 0
0.625 0.3125 0
0.625 0.25 0
1.25 0.25 0
0.625 0.3125 0
1.25 0.3125 0
0 0.3125 0
0.625 0.3125 0
0 0.375 0
0.625 0.375 0
0.625 0.3125 0
1.25 0.3125 0
0.625 0.375 0
1.25 0.375 0
1.25 0.25 0
1.875 0.25 0
1.25 0.3125 0
1.875 0.3125 0
1.875 0.25 0
2.5 0.25 0
1.875 0.3125 0
2.5 0.3125 0
1.25 0.3125 0
1.875 0.3125 0
1.25 0.375 0
1.875 0.375 0
1.875 0.3125 0
2.5 0.3125 0
1.875 0.375 0
2.5 0.375 0
0 0.375 0
0.625 0.375 0
0 0.4375 0
0.625 0.4375 0
0.625 0.375 0
1.25 0.375 0
0.625 0.4375 0
1.25 0.4375 0
0 0.4375 0
0.625 0.4375 0
0 0.5 0
0.625 0.5 0
0.625 0.4375 0
1.25 0.4375 0
0.625 0.5 0
1.25 0.5 0
1.25 0.375 0
1.875 0.375 0
1.25 0.4375 0
1.875 0.4375 0
1.875 0.375 0
2.5 0.375 0
1.875 0.4375 0
2.5 0.4375 0
1.25 0.4375 0
1.875 0.4375 0
1.25 0.5 0
1.875 0.5 0
1.875 0.4375 0
2.5 0.4375 0
1.875 0.5 0
2.5 0.5 0
2.5 0.25 0
3.125 0.25 0
2.5 0.3125 0
3.125 0.3125 0
3.125 0.25 0
3.75 0.25 0
3.125 0.3125 0
3.75 0.3125 0
2.5 0.3125 0
3.125 0.3125 0
2.5 0.375 0
3.125 0.375 0
3.125 0.3125 0
3.75 0.3125 0
3.125 0.375 0
3.75 0.375 0
3.75 0.25 0
4.375 0.25 0
3.75 0.3125 0
4.375 0.3125 0
4.375 0.25 0
5 0.25 0
4.375 0.3125 0
5 0.3125 0
3.75 0.3125 0
4.375 0.3125 0
3.75 0.375 0
4.375 0.375 0
4.375 0.3125 0
5 0.3125 0
4.375 0.375 0
5 0.375 0
2.5 0.375 0
3.125 0.375 0
2.5 0.4375 0
3.125 0.4375 0
3.125 0.375 0
3.75 0.375 0
3.125 0.4375 0
3.75 0.4375 0
2.5 0.4375 0
3.125 0.4375 0
2.5 0.5 0
3.125 0.5 0
3.125 0.4375 0
3.75 0.4375 0
3.125 0.5 0
3.75 0.5 0
3.75 0.375 0
4.375 0.375 0
3.75 0.4375 0
4.375 0.4375 0
4.375 0.375 0
5 0.375 0
4.375 0.4375 0
5 0.4375 0
3.75 0.4375 0
4.375 0.4375 0
3.75 0.5 0
4.375 0.5 0
4.375 0.4375 0
5 0.4375 0
4.375 0.5 0
5 0.5 0

CELLS 64 320
4	0	1	3	2
4	4	5	7	6
4	8	9	11	10
4	12	13	15	14
4	16	17	19	18
4	20	21	23	22
4	24	25	27	26
4	28	29	31	30
4	32	33	35	34
4	36	37	39	38
4	40	41	43	42
4	44	45	47	46
4	48	49	51	50
4	52	53	55	54
4	56	57	59	58
4	60	61	63	62
4	64	65	67	66
4	68	69	71	70
4	72	73	75	74
4	76	77	79	78
4	80	81	83	82
4	84	85	87	86
4	88	89	91	90
4	92	93	95	94
4	96	97	99	98
4	100	101	103	102
4	104	105	107	106
4	108	109	111	110
4	112	113	115	114
4	116	117	119	118
4	120	121	123	122
4	124	125	127	126
4	128	129	131	130
4	132	133	135	134
4	136	137	139	138
4	140	141	143	142
4	144	145	147	146
4	148	149	151	150
4	152	153	155	154
4	156	157	159	158
4	160	161	163	162
4	164	165	167	166
4	168	169	171	170
4	172	173	175	174
4	176	177	179	178
4	180	181	183	182
4	184	185	187	186
4	188	189	191	190
4	192	193	195	194
4	196	197	199	198
4	200	201	203	202
4	204	205	207	206
4	208	209	211	210
4	212	213	215	214
4	216	217	219	218
4	220	221	223	222
4	224	225	227	226
4	228	229	231	230
4	232	233	235	234
4	236	237	239	238
4	240	241	243	242
4	244	245	247	246
4	248	249	251	250
4	252	253	255	254

CELL_TYPES 64
 9 9 9 9 9 9 9 9 9 9 9 9 9 9 9 9 9 9 9 9 9 9 9 9 9 9 9 9 9 9 9 9 9 9 9 9 9 9 9 9 9 9 9 9 9 9 9 9 9 9 9 9 9 9 9 9 9 9 9 9 9 9 9 9
POINT_DATA 256
VECTORS displacement double
0 0 0
1.25919e-05 1.96863e-05 0
0 0 0
9.2062e-06 1.87712e-05 0
1.25919e-05 1.96863e-05 0
2.39976e-05 6.70999e-05 0
9.2062e-06 1.87712e-05 0
1.79753e-05 6.65712e-05 0
0 0 0
9.2062e-06 1.87712e-05 0
0 0 0
6.03553e-06 1.81236e-05 0
9.2062e-06 1.87712e-05 0
1.79753e-05 6.65712e-05 0
6.03553e-06 1.81236e-05 0
1.19628e-05 6.61836e-05 0
2.39976e-05 6.70999e-05 0
3.20224e-05 0.000138804 0
1.79753e-05 6.65712e-05 0
2.39436e-05 0.000138412 0
3.20224e-05 0.000138804 0
3.7427e-05 0.000226962 0
2.39436e-05 0.000138412 0
2.80235e-05 0.000226713 0
1.79753e-05 6.65712e-05 0
2.39436e-05 0.000138412 0
1.19628e-05 6.61836e-05 0
1.59327e-05 0.000138135 0
2.39436e-05 0.000138412 0
2.80235e-05 0.000226713 0
1.59327e-05 0.000138135 0
1.8658e-05 0.000226533 0
0 0 0
6.03553e-06 1.81236e-05 0
0 0 0
2.98918e-06 1.77377e-05 0
6.03553e-06 1.81236e-05 0
1.19628e-05 6.61836e-05 0
2.98918e-06 1.77377e-05 0
5.97353e-06 6.59472e-05 0
0 0 0
2.98918e-06 1.77377e-05 0
0 0 0
-1.39027e-18 1.76095e-05 0
2.98918e-06 1.77377e-05 0
5.97353e-06 6.59472e-05 0
-1.39027e-18 1.76095e-05 0
-3.94621e-18 6.58679e-05 0
1.19628e-05 6.61836e-05 0
1.59327e-05 0.000138135 0
5.97353e-06 6.59472e-05 0
7.95824e-06 0.000137971 0
1.59327e-05 0.000138135 0
1.8658e-05 0.000226533 0
7.95824e-06 0.000137971 0
9.32144e-06 0.000226424 0
5.97353e-06 6.59472e-05 0
7.95824e-06 0.000137971 0
-3.94621e-18 6.58679e-05 0
-8.23331e-18 0.000137916 0
7.95824e-06 0.000137971 0
9.32144e-06 0.000226424 0
-8.23331e-18 0.000137916 0
-7.65239e-18 0.000226388 0
3.7427e-05 0.000226962 0
4.07353e-05 0.000325715 0
2.80235e-05 0.000226713 0
3.05143e-05 0.000325572 0
4.07353e-05 0.000325715 0
4.24645e-05 0.000430466 0
3.05143e-05 0.000325572 0
3.18238e-05 0.000430401 0
2.80235e-05 0.000226713 0
3.05143e-05 0.000325572 0
1.8658e-05 0.000226533 0
2.03258e-05 0.00032547 0
3.05143e-05 0.000325572 0
3.18238e-05 0.000430401 0
2.03258e-05 0.00032547 0
2.1204e-05 0.000430353 0
4.24645e-05 0.000430466 0
4.31395e-05 0.000537922 0
3.18238e-05 0.000430401 0
3.23428e-05 0.000537903 0
4.31395e-05 0.000537922 0
4.32906e-05 0.000646111 0
3.23428e-05 0.000537903 0
3.24652e-05 0.000646106 0
3.18238e-05 0.000430401 0
3.23428e-05 0.000537903 0
2.1204e-05 0.000430353 0
2.15563e-05 0.000537888 0
3.23428e-05 0.000537903 0
3.24652e-05 0.000646106 0
2.15563e-05 0.000537888 0
2.1642e-05 0.000646103 0
1.8658e-05 0.000226533 0
2.03258e-05 0.00032547 0
9.32144e-06 0.000226424 0
1.01579e-05 0.000325409 0
2.03258e-05 0.00032547 0
2.1204e-05 0.000430353 0
1.01579e-05 0.000325409 0
1.05984e-05 0.000430324 0
9.32144e-06 0.000226424 0
1.01579e-05 0.000325409 0
-7.65239e-18 0.000226388 0
-6.62047e-18 0.000325388 0
1.01579e-05 0.000325409 0
1.05984e-05 0.000430324 0
-6.62047e-18 0.000325388 0
-5.60991e-18 0.000430314 0
2.1204e-05 0.000430353 0
2.15563e-05 0.000537888 0
1.05984e-05 0.000430324 0
1.07765e-05 0.000537879 0
2.15563e-05 0.000537888 0
2.1642e-05 0.000646103 0
1.07765e-05 0.000537879 0
1.08205e-05 0.0006461 0
1.05984e-05 0.000430324 0
1.07765e-05 0.000537879 0
-5.60991e-18 0.000430314 0
-5.13073e-18 0.000537876 0
1.07765e-05 0.000537879 0
1.08205e-05 0.0006461 0
-5.13073e-18 0.000537876 0
-4.1709e-18 0.0006461 0
0 0 0
-1.39027e-18 1.76095e-05 0
0 0 0
-2.98918e-06 1.77377e-05 0
-1.39027e-18 1.76095e-05 0
-3.94621e-18 6.58679e-05 0
-2.98918e-06 1.77377e-05 0
-5.97353e-06 6.59472e-05 0
0 0 0
-2.98918e-06 1.77377e-05 0
0 0 0
-6.03553e-06 1.81236e-05 0
-2.98918e-06 1.77377e-05 0
-5.97353e-06 6.59472e-05 0
-6.03553e-06 1.81236e-05 0
-1.19628e-05 6.61836e-05 0
-3.94621e-18 6.58679e-05 0
-8.23331e-18 0.000137916 0
-5.97353e-06 6.59472e-05 0
-7.95824e-06 0.000137971 0
-8.23331e-18 0.000137916 0
-7.65239e-18 0.000226388 0
-7.95824e-06 0.000137971 0
-9.32144e-06 0.000226424 0
-5.97353e-06 6.59472e-05 0
-7.95824e-06 0.000137971 0
-1.19628e-05 6.61836e-05 0
-1.59327e-05 0.000138135 0
-7.95824e-06 0.000137971 0
-9.32144e-06 0.000226424 0
-1.59327e-05 0.000138135 0
-1.8658e-05 0.000226533 0
0 0 0
-6.03553e-06 1.81236e-05 0
0 0 0
-9.2062e-06 1.87712e-05 0
-6.03553e-06 1.81236e-05 0
-1.19628e-05 6.61836e-05 0
-9.2062e-06 1.87712e-05 0
-1.79753e-05 6.65712e-05 0
0 0 0
-9.2062e-06 1.87712e-05 0
0 0 0
-1.25919e-05 1.96863e-05 0
-9.2062e-06 1.87712e-05 0
-1.79753e-05 6.65712e-05 0
-1.25919e-05 1.96863e-05 0
-2.39976e-05 6.70999e-05 0
-1.19628e-05 6.61836e-05 0
-1.59327e-05 0.000138135 0
-1.79753e-05 6.65712e-05 0
-2.39436e-05 0.000138412 0
-1.59327e-05 0.000138135 0
-1.8658e-05 0.000226533 0
-2.39436e-05 0.000138412 0
-2.80235e-05 0.000226713 0
-1.79753e-05 6.65712e-05 0
-2.39436e-05 0.000138412 0
-2.39976e-05 6.70999e-05 0
-3.20224e-05 0.000138804 0
-2.39436e-05 0.000138412 0
-2.80235e-05 0.000226713 0
-3.20224e-05 0.000138804 0
-3.7427e-05 0.000226962 0
-7.65239e-18 0.000226388 0
-6.62047e-18 0.000325388 0
-9.32144e-06 0.000226424 0
-1.01579e-05 0.000325409 0
-6.62047e-18 0.000325388 0
-5.60991e-18 0.000430314 0
-1.01579e-05 0.000325409 0
-1.05984e-05 0.000430324 0
-9.32144e-06 0.000226424 0
-1.01579e-05 0.000325409 0
-1.8658e-05 0.000226533 0
-2.03258e-05 0.00032547 0
-1.01579e-05 0.000325409 0
-1.05984e-05 0.000430324 0
-2.03258e-05 0.00032547 0
-2.1204e-05 0.000430353 0
-5.60991e-18 0.000430314 0
-5.13073e-18 0.000537876 0
-1.05984e-05 0.000430324 0
-1.07765e-05 0.000537879 0
-5.13073e-18 0.000537876 0
-4.1709e-18 0.0006461 0
-1.07765e-05 0.000537879 0
-1.08205e-05 0.0006461 0
-1.05984e-05 0.000430324 0
-1.07765e-05 0.000537879 0
-2.1204e-05 0.000430353 0
-2.15563e-05 0.000537888 0
-1.07765e-05 0.000537879 0
-1.08205e-05 0.0006461 0
-2.15563e-05 0.000537888 0
-2.1642e-05 0.000646103 0
-1.8658e-05 0.000226533 0
-2.03258e-05 0.00032547 0
-2.80235e-05 0.000226713 0
-3.05143e-05 0.000325572 0
-2.03258e-05 0.00032547 0
-2.1204e-05 0.000430353 0
-3.05143e-05 0.000325572 0
-3.18238e-05 0.000430401 0
-2.80235e-05 0.000226713 0
-3.05143e-05 0.000325572 0
-3.7427e-05 0.000226962 0
-4.07353e-05 0.000325715 0
-3.05143e-05 0.000325572 0
-3.18238e-05 0.000430401 0
-4.07353e-05 0.000325715 0
-4.24645e-05 0.000430466 0
-2.1204e-05 0.000430353 0
-2.15563e-05 0.000537888 0
-3.18238e-05 0.000430401 0
-3.23428e-05 0.000537903 0
-2.15563e-05 0.000537888 0
-2.1642e-05 0.000646103 0
-3.23428e-05 0.000537903 0
-3.24652e-05 0.000646106 0
-3.18238e-05 0.000430401 0
-3.23428e-05 0.000537903 0
-4.24645e-05 0.000430466 0
-4.31395e-05 0.000537922 0
-3.23428e-05 0.000537903 0
-3.24652e-05 0.000646106 0
-4.31395e-05 0.000537922 0
-4.32906e-05 0.000646111 0
VECTORS velocity double
0 0 0
-1.72915e-05 -2.64525e-05 0
0 0 0
-1.26689e-05 -2.51795e-05 0
-1.72915e-05 -2.64525e-05 0
-3.36232e-05 -9.21035e-05 0
-1.26689e-05 -2.51795e-05 0
-2.51903e-05 -9.13251e-05 0
0 0 0
-1.26689e-05 -2.51795e-05 0
0 0 0
-8.3175e-06 -2.4278e-05 0
-1.26689e-05 -2.51795e-05 0
-2.51903e-05 -9.13251e-05 0
-8.3175e-06 -2.4278e-05 0
-1.67679e-05 -9.07567e-05 0
-3.36232e-05 -9.21035e-05 0
-4.56178e-05 -0.000193417 0
-2.51903e-05 -9.13251e-05 0
-3.41116e-05 -0.00019282 0
-4.56178e-05 -0.000193417 0
-5.39584e-05 -0.000319843 0
-3.41116e-05 -0.00019282 0
-4.03971e-05 -0.000319455 0
-2.51903e-05 -9.13251e-05 0
-3.41116e-05 -0.00019282 0
-1.67679e-05 -9.07567e-05 0
-2.26993e-05 -0.0001924 0
-3.41116e-05 -0.00019282 0
-4.03971e-05 -0.000319455 0
-2.26993e-05 -0.0001924 0
-2.68945e-05 -0.000319176 0
0 0 0
-8.3175e-06 -2.4278e-05 0
0 0 0
-4.12275e-06 -2.37405e-05 0
-8.3175e-06 -2.4278e-05 0
-1.67679e-05 -9.07567e-05 0
-4.12275e-06 -2.37405e-05 0
-8.37415e-06 -9.0411e-05 0
0 0 0
-4.12275e-06 -2.37405e-05 0
0 0 0
3.87433e-15 -2.35619e-05 0
-4.12275e-06 -2.37405e-05 0
-8.37415e-06 -9.0411e-05 0
3.87433e-15 -2.35619e-05 0
5.22136e-15 -9.0295e-05 0
-1.67679e-05 -9.07567e-05 0
-2.26993e-05 -0.0001924 0
-8.37415e-06 -9.0411e-05 0
-1.13382e-05 -0.000192149 0
-2.26993e-05 -0.0001924 0
-2.68945e-05 -0.000319176 0
-1.13382e-05 -0.000192149 0
-1.34358e-05 -0.000319007 0
-8.37415e-06 -9.0411e-05 0
-1.13382e-05 -0.000192149 0
5.22136e-15 -9.0295e-05 0
-2.19866e-15 -0.000192066 0
-1.13382e-05 -0.000192149 0
-1.34358e-05 -0.000319007 0
-2.19866e-15 -0.000192066 0
1.99378e-14 -0.000318951 0
-5.39584e-05 -0.000319843 0
-5.91077e-05 -0.000462864 0
-4.03971e-05 -0.000319455 0
-4.4268e-05 -0.000462646 0
-5.91077e-05 -0.000462864 0
-6.16519e-05 -0.000615099 0
-4.4268e-05 -0.000462646 0
-4.61983e-05 -0.00061501 0
-4.03971e-05 -0.000319455 0
-4.4268e-05 -0.000462646 0
-2.68945e-05 -0.000319176 0
-2.94831e-05 -0.000462489 0
-4.4268e-05 -0.000462646 0
-4.61983e-05 -0.00061501 0
-2.94831e-05 -0.000462489 0
-3.07793e-05 -0.000614944 0
-6.16519e-05 -0.000615099 0
-6.24861e-05 -0.000770941 0
-4.61983e-05 -0.00061501 0
-4.68499e-05 -0.000770921 0
-6.24861e-05 -0.000770941 0
-6.26162e-05 -0.000927458 0
-4.68499e-05 -0.000770921 0
-4.6961e-05 -0.000927456 0
-4.61983e-05 -0.00061501 0
-4.68499e-05 -0.000770921 0
-3.07793e-05 -0.000614944 0
-3.12262e-05 -0.000770905 0
-4.68499e-05 -0.000770921 0
-4.6961e-05 -0.000927456 0
-3.12262e-05 -0.000770905 0
-3.13067e-05 -0.000927454 0
-2.68945e-05 -0.000319176 0
-2.94831e-05 -0.000462489 0
-1.34358e-05 -0.000319007 0
-1.4733e-05 -0.000462395 0
-2.94831e-05 -0.000462489 0
-3.07793e-05 -0.000614944 0
-1.4733e-05 -0.000462395 0
-1.53838e-05 -0.000614904 0
-1.34358e-05 -0.000319007 0
-1.4733e-05 -0.000462395 0
1.99378e-14 -0.000318951 0
2.3896e-14 -0.000462364 0
-1.4733e-05 -0.000462395 0
-1.53838e-05 -0.000614904 0
2.3896e-14 -0.000462364 0
1.43911e-14 -0.00061489 0
-3.07793e-05 -0.000614944 0
-3.12262e-05 -0.000770905 0
-1.53838e-05 -0.000614904 0
-1.5611e-05 -0.000770895 0
-3.12262e-05 -0.000770905 0
-3.13067e-05 -0.000927454 0
-1.5611e-05 -0.000770895 0
-1.56531e-05 -0.000927452 0
-1.53838e-05 -0.000614904 0
-1.5611e-05 -0.000770895 0
1.43911e-14 -0.00061489 0
1.11192e-14 -0.000770891 0
-1.5611e-05 -0.000770895 0
-1.56531e-05 -0.000927452 0
1.11192e-14 -0.000770891 0
1.70189e-14 -0.000927452 0
0 0 0
3.87433e-15 -2.35619e-05 0
0 0 0
4.12275e-06 -2.37405e-05 0
3.87433e-15 -2.35619e-05 0
5.22136e-15 -9.0295e-05 0
4.12275e-06 -2.37405e-05 0
8.37415e-06 -9.0411e-05 0
0 0 0
4.12275e-06 -2.37405e-05 0
0 0 0
8.3175e-06 -2.4278e-05 0
4.12275e-06 -2.37405e-05 0
8.37415e-06 -9.0411e-05 0
8.3175e-06 -2.4278e-05 0
1.67679e-05 -9.07567e-05 0
5.22136e-15 -9.0295e-05 0
-2.19866e-15 -0.000192066 0
8.37415e-06 -9.0411e-05 0
1.13382e-05 -0.000192149 0
-2.19866e-15 -0.000192066 0
1.99378e-14 -0.000318951 0
1.13382e-05 -0.000192149 0
1.34358e-05 -0.000319007 0
8.37415e-06 -9.0411e-05 0
1.13382e-05 -0.000192149 0
1.67679e-05 -9.07567e-05 0
2.26993e-05 -0.0001924 0
1.13382e-05 -0.000192149 0
1.34358e-05 -0.000319007 0
2.26993e-05 -0.0001924 0
2.68945e-05 -0.000319176 0
0 0 0
8.3175e-06 -2.4278e-05 0
0 0 0
1.26689e-05 -2.51795e-05 0
8.3175e-06 -2.4278e-05 0
1.67679e-05 -9.07567e-05 0
1.26689e-05 -2.51795e-05 0
2.51903e-05 -9.13251e-05 0
0 0 0
1.26689e-05 -2.51795e-05 0
0 0 0
1.72915e-05 -2.64525e-05 0
1.26689e-05 -2.51795e-05 0
2.51903e-05 -9.13251e-05 0
1.72915e-05 -2.64525e-05 0
3.36232e-05 -9.21035e-05 0
1.67679e-05 -9.07567e-05 0
2.26993e-05 -0.0001924 0
2.51903e-05 -9.13251e-05 0
3.41116e-05 -0.00019282 0
2.26993e-05 -0.0001924 0
2.68945e-05 -0.000319176 0
3.41116e-05 -0.00019282 0
4.03971e-05 -0.000319455 0
2.51903e-05 -9.13251e-05 0
3.41116e-05 -0.00019282 0
3.36232e-05 -9.21035e-05 0
4.56178e-05 -0.000193417 0
3.41116e-05 -0.00019282 0
4.03971e-05 -0.000319455 0
4.56178e-05 -0.000193417 0
5.39584e-05 -0.000319843 0
1.99378e-14 -0.000318951 0
2.3896e-14 -0.000462364 0
1.34358e-05 -0.000319007 0
1.4733e-05 -0.000462395 0
2.3896e-14 -0.000462364 0
1.43911e-14 -0.00061489 0
1.4733e-05 -0.000462395 0
1.53838e-05 -0.000614904 0
1.34358e-05 -0.000319007 0
1.4733e-05 -0.000462395 0
2.68945e-05 -0.000319176 0
2.94831e-05 -0.000462489 0
1.4733e-05 -0.000462395 0
1.53838e-05 -0.000614904 0
2.94831e-05 -0.000462489 0
3.07793e-05 -0.000614944 0
1.43911e-14 -0.00061489 0
1.11192e-14 -0.000770891 0
1.53838e-05 -0.000614904 0
1.5611e-05 -0.000770895 0
1.11192e-14 -0.000770891 0
1.70189e-14 -0.000927452 0
1.5611e-05 -0.000770895 0
1.56531e-05 -0.000927452 0
1.53838e-05 -0.000614904 0
1.5611e-05 -0.000770895 0
3.07793e-05 -0.000614944 0
3.12262e-05 -0.000770905 0
1.5611e-05 -0.000770895 0
1.56531e-05 -0.000927452 0
3.12262e-05 -0.000770905 0
3.13067e-05 -0.000927454 0
2.68945e-05 -0.000319176 0
2.94831e-05 -0.000462489 0
4.03971e-05 -0.000319455 0
4.4268e-05 -0.000462646 0
2.94831e-05 -0.000462489 0
3.07793e-05 -0.000614944 0
4.4268e-05 -0.000462646 0
4.61983e-05 -0.00061501 0
4.03971e-05 -0.000319455 0
4.4268e-05 -0.000462646 0
5.39584e-05 -0.000319843 0
5.91077e-05 -0.000462864 0
4.4268e-05 -0.000462646 0
4.61983e-05 -0.00061501 0
5.91077e-05 -0.000462864 0
6.16519e-05 -0.000615099 0
3.07793e-05 -0.000614944 0
3.12262e-05 -0.000770905 0
4.61983e-05 -0.00061501 0
4.68499e-05 -0.000770921 0
3.12262e-05 -0.000770905 0
3.13067e-05 -0.000927454 0
4.68499e-05 -0.000770921 0
4.6961e-05 -0.000927456 0
4.61983e-05 -0.00061501 0
4.68499e-05 -0.000770921 0
6.16519e-05 -0.000615099 0
6.24861e-05 -0.000770941 0
4.68499e-05 -0.000770921 0
4.6961e-05 -0.000927456 0
6.24861e-05 -0.000770941 0
6.26162e-05 -0.000927458 0
