# vtk DataFile Version 3.0
#This file was generated by the deal.II library on 2025/3/10 at 16:32:27
ASCII
DATASET UNSTRUCTURED_GRID

FIELD FieldData 1
TIME 1 1 double
1.37375
POINTS 256 double
0 0 0
0.625 0 0
0 0.0625 0
0.625 0.0625 0
0.625 0 0
1.25 0 0
0.625 0.0625 0
1.25 0.0625 0
0 0.0625 0
0.625 0.0625 0
0 0.125 0
0.625 0.125 0
0.625 0.0625 0
1.25 0.0625 0
0.625 0.125 0
1.25 0.125 0
1.25 0 0
1.875 0 0
1.25 0.0625 0
1.875 0.0625 0
1.875 0 0
2.5 0 0
1.875 0.0625 0
2.5 0.0625 0
1.25 0.0625 0
1.875 0.0625 0
1.25 0.125 0
1.875 0.125 0
1.875 0.0625 0
2.5 0.0625 0
1.875 0.125 0
2.5 0.125 0
0 0.125 0
0.625 0.125 0
0 0.1875 0
0.625 0.1875 0
0.625 0.125 0
1.25 0.125 0
0.625 0.1875 0
1.25 0.1875 0
0 0.1875 0
0.625 0.1875 0
0 0.25 0
0.625 0.25 0
0.625 0.1875 0
1.25 0.1875 0
0.625 0.25 0
1.25 0.25 0
1.25 0.125 0
1.875 0.125 0
1.25 0.1875 0
1.875 0.1875 0
1.875 0.125 0
2.5 0.125 0
1.875 0.1875 0
2.5 0.1875 0
1.25 0.1875 0
1.875 0.1875 0
1.25 0.25 0
1.875 0.25 0
1.875 0.1875 0
2.5 0.1875 0
1.875 0.25 0
2.5 0.25 0
2.5 0 0
3.125 0 0
2.5 0.0625 0
3.125 0.0625 0
3.125 0 0
3.75 0 0
3.125 0.0625 0
3.75 0.0625 0
2.5 0.0625 0
3.125 0.0625 0
2.5 0.125 0
3.125 0.125 0
3.125 0.0625 0
3.75 0.0625 0
3.125 0.125 0
3.75 0.125 0
3.75 0 0
4.375 0 0
3.75 0.0625 0
4.375 0.0625 0
4.375 0 0
5 0 0
4.375 0.0625 0
5 0.0625 0
3.75 0.0625 0
4.375 0.0625 0
3.75 0.125 0
4.375 0.125 0
4.375 0.0625 0
5 0.0625 0
4.375 0.125 0
5 0.125 0
2.5 0.125 0
3.125 0.125 0
2.5 0.1875 0
3.125 0.1875 0
3.125 0.125 0
3.75 0.125 0
3.125 0.1875 0
3.75 0.1875 0
2.5 0.1875 0
3.125 0.1875 0
2.5 0.25 0
3.125 0.25 0
3.125 0.1875 0
3.75 0.1875 0
3.125 0.25 0
3.75 0.25 0
3.75 0.125 0
4.375 0.125 0
3.75 0.1875 0
4.375 0.1875 0
4.375 0.125 0
5 0.125 0
4.375 0.1875 0
5 0.1875 0
3.75 0.1875 0
4.375 0.1875 0
3.75 0.25 0
4.375 0.25 0
4.375 0.1875 0
5 0.1875 0
4.375 0.25 0
5 0.25 0
0 0.25 0
0.625 0.25 0
0 0.3125 0
0.625 0.3125 0
0.625 0.25 0
1.25 0.25 0
0.625 0.3125 0
1.25 0.3125 0
0 0.3125 0
0.625 0.3125 0
0 0.375 0
0.625 0.375 0
0.625 0.3125 0
1.25 0.3125 0
0.625 0.375 0
1.25 0.375 0
1.25 0.25 0
1.875 0.25 0
1.25 0.3125 0
1.875 0.3125 0
1.875 0.25 0
2.5 0.25 0
1.875 0.3125 0
2.5 0.3125 0
1.25 0.3125 0
1.875 0.3125 0
1.25 0.375 0
1.875 0.375 0
1.875 0.3125 0
2.5 0.3125 0
1.875 0.375 0
2.5 0.375 0
0 0.375 0
0.625 0.375 0
0 0.4375 0
0.625 0.4375 0
0.625 0.375 0
1.25 0.375 0
0.625 0.4375 0
1.25 0.4375 0
0 0.4375 0
0.625 0.4375 0
0 0.5 0
0.625 0.5 0
0.625 0.4375 0
1.25 0.4375 0
0.625 0.5 0
1.25 0.5 0
1.25 0.375 0
1.875 0.375 0
1.25 0.4375 0
1.875 0.4375 0
1.875 0.375 0
2.5 0.375 0
1.875 0.4375 0
2.5 0.4375 0
1.25 0.4375 0
1.875 0.4375 0
1.25 0.5 0
1.875 0.5 0
1.875 0.4375 0
2.5 0.4375 0
1.875 0.5 0
2.5 0.5 0
2.5 0.25 0
3.125 0.25 0
2.5 0.3125 0
3.125 0.3125 0
3.125 0.25 0
3.75 0.25 0
3.125 0.3125 0
3.75 0.3125 0
2.5 0.3125 0
3.125 0.3125 0
2.5 0.375 0
3.125 0.375 0
3.125 0.3125 0
3.75 0.3125 0
3.125 0.375 0
3.75 0.375 0
3.75 0.25 0
4.375 0.25 0
3.75 0.3125 0
4.375 0.3125 0
4.375 0.25 0
5 0.25 0
4.375 0.3125 0
5 0.3125 0
3.75 0.3125 0
4.375 0.3125 0
3.75 0.375 0
4.375 0.375 0
4.375 0.3125 0
5 0.3125 0
4.375 0.375 0
5 0.375 0
2.5 0.375 0
3.125 0.375 0
2.5 0.4375 0
3.125 0.4375 0
3.125 0.375 0
3.75 0.375 0
3.125 0.4375 0
3.75 0.4375 0
2.5 0.4375 0
3.125 0.4375 0
2.5 0.5 0
3.125 0.5 0
3.125 0.4375 0
3.75 0.4375 0
3.125 0.5 0
3.75 0.5 0
3.75 0.375 0
4.375 0.375 0
3.75 0.4375 0
4.375 0.4375 0
4.375 0.375 0
5 0.375 0
4.375 0.4375 0
5 0.4375 0
3.75 0.4375 0
4.375 0.4375 0
3.75 0.5 0
4.375 0.5 0
4.375 0.4375 0
5 0.4375 0
4.375 0.5 0
5 0.5 0

CELLS 64 320
4	0	1	3	2
4	4	5	7	6
4	8	9	11	10
4	12	13	15	14
4	16	17	19	18
4	20	21	23	22
4	24	25	27	26
4	28	29	31	30
4	32	33	35	34
4	36	37	39	38
4	40	41	43	42
4	44	45	47	46
4	48	49	51	50
4	52	53	55	54
4	56	57	59	58
4	60	61	63	62
4	64	65	67	66
4	68	69	71	70
4	72	73	75	74
4	76	77	79	78
4	80	81	83	82
4	84	85	87	86
4	88	89	91	90
4	92	93	95	94
4	96	97	99	98
4	100	101	103	102
4	104	105	107	106
4	108	109	111	110
4	112	113	115	114
4	116	117	119	118
4	120	121	123	122
4	124	125	127	126
4	128	129	131	130
4	132	133	135	134
4	136	137	139	138
4	140	141	143	142
4	144	145	147	146
4	148	149	151	150
4	152	153	155	154
4	156	157	159	158
4	160	161	163	162
4	164	165	167	166
4	168	169	171	170
4	172	173	175	174
4	176	177	179	178
4	180	181	183	182
4	184	185	187	186
4	188	189	191	190
4	192	193	195	194
4	196	197	199	198
4	200	201	203	202
4	204	205	207	206
4	208	209	211	210
4	212	213	215	214
4	216	217	219	218
4	220	221	223	222
4	224	225	227	226
4	228	229	231	230
4	232	233	235	234
4	236	237	239	238
4	240	241	243	242
4	244	245	247	246
4	248	249	251	250
4	252	253	255	254

CELL_TYPES 64
 9 9 9 9 9 9 9 9 9 9 9 9 9 9 9 9 9 9 9 9 9 9 9 9 9 9 9 9 9 9 9 9 9 9 9 9 9 9 9 9 9 9 9 9 9 9 9 9 9 9 9 9 9 9 9 9 9 9 9 9 9 9 9 9
POINT_DATA 256
VECTORS displacement double
0 0 0
1.37425e-05 2.15094e-05 0
0 0 0
1.00464e-05 2.05113e-05 0
1.37425e-05 2.15094e-05 0
2.6163e-05 7.32332e-05 0
1.00464e-05 2.05113e-05 0
1.9597e-05 7.26585e-05 0
0 0 0
1.00464e-05 2.05113e-05 0
0 0 0
6.58587e-06 1.9805e-05 0
1.00464e-05 2.05113e-05 0
1.9597e-05 7.26585e-05 0
6.58587e-06 1.9805e-05 0
1.30419e-05 7.2237e-05 0
2.6163e-05 7.32332e-05 0
3.48791e-05 0.000151373 0
1.9597e-05 7.26585e-05 0
2.60794e-05 0.000150947 0
3.48791e-05 0.000151373 0
4.07339e-05 0.000247356 0
2.60794e-05 0.000150947 0
3.04996e-05 0.000247087 0
1.9597e-05 7.26585e-05 0
2.60794e-05 0.000150947 0
1.30419e-05 7.2237e-05 0
1.73539e-05 0.000150647 0
2.60794e-05 0.000150947 0
3.04996e-05 0.000247087 0
1.73539e-05 0.000150647 0
2.03066e-05 0.000246892 0
0 0 0
6.58587e-06 1.9805e-05 0
0 0 0
3.2616e-06 1.93842e-05 0
6.58587e-06 1.9805e-05 0
1.30419e-05 7.2237e-05 0
3.2616e-06 1.93842e-05 0
6.51233e-06 7.19799e-05 0
0 0 0
3.2616e-06 1.93842e-05 0
0 0 0
1.367e-18 1.92444e-05 0
3.2616e-06 1.93842e-05 0
6.51233e-06 7.19799e-05 0
1.367e-18 1.92444e-05 0
3.33024e-18 7.18936e-05 0
1.30419e-05 7.2237e-05 0
1.73539e-05 0.000150647 0
6.51233e-06 7.19799e-05 0
8.66808e-06 0.000150469 0
1.73539e-05 0.000150647 0
2.03066e-05 0.000246892 0
8.66808e-06 0.000150469 0
1.01451e-05 0.000246775 0
6.51233e-06 7.19799e-05 0
8.66808e-06 0.000150469 0
3.33024e-18 7.18936e-05 0
6.12721e-18 0.000150409 0
8.66808e-06 0.000150469 0
1.01451e-05 0.000246775 0
6.12721e-18 0.000150409 0
5.70488e-18 0.000246735 0
4.07339e-05 0.000247356 0
4.43082e-05 0.000354799 0
3.04996e-05 0.000247087 0
3.31909e-05 0.000354645 0
4.43082e-05 0.000354799 0
4.61713e-05 0.00046871 0
3.31909e-05 0.000354645 0
3.46019e-05 0.00046864 0
3.04996e-05 0.000247087 0
3.31909e-05 0.000354645 0
2.03066e-05 0.000246892 0
2.21088e-05 0.000354535 0
3.31909e-05 0.000354645 0
3.46019e-05 0.00046864 0
2.21088e-05 0.000354535 0
2.30551e-05 0.000468589 0
4.61713e-05 0.00046871 0
4.68965e-05 0.000585531 0
3.46019e-05 0.00046864 0
3.51597e-05 0.00058551 0
4.68965e-05 0.000585531 0
4.70585e-05 0.000703136 0
3.51597e-05 0.00058551 0
3.52909e-05 0.000703132 0
3.46019e-05 0.00046864 0
3.51597e-05 0.00058551 0
2.30551e-05 0.000468589 0
2.34338e-05 0.000585494 0
3.51597e-05 0.00058551 0
3.52909e-05 0.000703132 0
2.34338e-05 0.000585494 0
2.35257e-05 0.000703128 0
2.03066e-05 0.000246892 0
2.21088e-05 0.000354535 0
1.01451e-05 0.000246775 0
1.10489e-05 0.000354468 0
2.21088e-05 0.000354535 0
2.30551e-05 0.000468589 0
1.10489e-05 0.000354468 0
1.15237e-05 0.000468557 0
1.01451e-05 0.000246775 0
1.10489e-05 0.000354468 0
5.70488e-18 0.000246735 0
7.78134e-18 0.000354446 0
1.10489e-05 0.000354468 0
1.15237e-05 0.000468557 0
7.78134e-18 0.000354446 0
1.23518e-17 0.000468547 0
2.30551e-05 0.000468589 0
2.34338e-05 0.000585494 0
1.15237e-05 0.000468557 0
1.17151e-05 0.000585485 0
2.34338e-05 0.000585494 0
2.35257e-05 0.000703128 0
1.17151e-05 0.000585485 0
1.17623e-05 0.000703125 0
1.15237e-05 0.000468557 0
1.17151e-05 0.000585485 0
1.23518e-17 0.000468547 0
1.51503e-17 0.000585481 0
1.17151e-05 0.000585485 0
1.17623e-05 0.000703125 0
1.51503e-17 0.000585481 0
1.59998e-17 0.000703124 0
0 0 0
1.367e-18 1.92444e-05 0
0 0 0
-3.2616e-06 1.93842e-05 0
1.367e-18 1.92444e-05 0
3.33024e-18 7.18936e-05 0
-3.2616e-06 1.93842e-05 0
-6.51233e-06 7.19799e-05 0
0 0 0
-3.2616e-06 1.93842e-05 0
0 0 0
-6.58587e-06 1.9805e-05 0
-3.2616e-06 1.93842e-05 0
-6.51233e-06 7.19799e-05 0
-6.58587e-06 1.9805e-05 0
-1.30419e-05 7.2237e-05 0
3.33024e-18 7.18936e-05 0
6.12721e-18 0.000150409 0
-6.51233e-06 7.19799e-05 0
-8.66808e-06 0.000150469 0
6.12721e-18 0.000150409 0
5.70488e-18 0.000246735 0
-8.66808e-06 0.000150469 0
-1.01451e-05 0.000246775 0
-6.51233e-06 7.19799e-05 0
-8.66808e-06 0.000150469 0
-1.30419e-05 7.2237e-05 0
-1.73539e-05 0.000150647 0
-8.66808e-06 0.000150469 0
-1.01451e-05 0.000246775 0
-1.73539e-05 0.000150647 0
-2.03066e-05 0.000246892 0
0 0 0
-6.58587e-06 1.9805e-05 0
0 0 0
-1.00464e-05 2.05113e-05 0
-6.58587e-06 1.9805e-05 0
-1.30419e-05 7.2237e-05 0
-1.00464e-05 2.05113e-05 0
-1.9597e-05 7.26585e-05 0
0 0 0
-1.00464e-05 2.05113e-05 0
0 0 0
-1.37425e-05 2.15094e-05 0
-1.00464e-05 2.05113e-05 0
-1.9597e-05 7.26585e-05 0
-1.37425e-05 2.15094e-05 0
-2.6163e-05 7.32332e-05 0
-1.30419e-05 7.2237e-05 0
-1.73539e-05 0.000150647 0
-1.9597e-05 7.26585e-05 0
-2.60794e-05 0.000150947 0
-1.73539e-05 0.000150647 0
-2.03066e-05 0.000246892 0
-2.60794e-05 0.000150947 0
-3.04996e-05 0.000247087 0
-1.9597e-05 7.26585e-05 0
-2.60794e-05 0.000150947 0
-2.6163e-05 7.32332e-05 0
-3.48791e-05 0.000151373 0
-2.60794e-05 0.000150947 0
-3.04996e-05 0.000247087 0
-3.48791e-05 0.000151373 0
-4.07339e-05 0.000247356 0
5.70488e-18 0.000246735 0
7.78134e-18 0.000354446 0
-1.01451e-05 0.000246775 0
-1.10489e-05 0.000354468 0
7.78134e-18 0.000354446 0
1.23518e-17 0.000468547 0
-1.10489e-05 0.000354468 0
-1.15237e-05 0.000468557 0
-1.01451e-05 0.000246775 0
-1.10489e-05 0.000354468 0
-2.03066e-05 0.000246892 0
-2.21088e-05 0.000354535 0
-1.10489e-05 0.000354468 0
-1.15237e-05 0.000468557 0
-2.21088e-05 0.000354535 0
-2.30551e-05 0.000468589 0
1.23518e-17 0.000468547 0
1.51503e-17 0.000585481 0
-1.15237e-05 0.000468557 0
-1.17151e-05 0.000585485 0
1.51503e-17 0.000585481 0
1.59998e-17 0.000703124 0
-1.17151e-05 0.000585485 0
-1.17623e-05 0.000703125 0
-1.15237e-05 0.000468557 0
-1.17151e-05 0.000585485 0
-2.30551e-05 0.000468589 0
-2.34338e-05 0.000585494 0
-1.17151e-05 0.000585485 0
-1.17623e-05 0.000703125 0
-2.34338e-05 0.000585494 0
-2.35257e-05 0.000703128 0
-2.03066e-05 0.000246892 0
-2.21088e-05 0.000354535 0
-3.04996e-05 0.000247087 0
-3.31909e-05 0.000354645 0
-2.21088e-05 0.000354535 0
-2.30551e-05 0.000468589 0
-3.31909e-05 0.000354645 0
-3.46019e-05 0.00046864 0
-3.04996e-05 0.000247087 0
-3.31909e-05 0.000354645 0
-4.07339e-05 0.000247356 0
-4.43082e-05 0.000354799 0
-3.31909e-05 0.000354645 0
-3.46019e-05 0.00046864 0
-4.43082e-05 0.000354799 0
-4.61713e-05 0.00046871 0
-2.30551e-05 0.000468589 0
-2.34338e-05 0.000585494 0
-3.46019e-05 0.00046864 0
-3.51597e-05 0.00058551 0
-2.34338e-05 0.000585494 0
-2.35257e-05 0.000703128 0
-3.51597e-05 0.00058551 0
-3.52909e-05 0.000703132 0
-3.46019e-05 0.00046864 0
-3.51597e-05 0.00058551 0
-4.61713e-05 0.00046871 0
-4.68965e-05 0.000585531 0
-3.51597e-05 0.00058551 0
-3.52909e-05 0.000703132 0
-4.68965e-05 0.000585531 0
-4.70585e-05 0.000703136 0
VECTORS velocity double
0 0 0
-5.81992e-06 -9.20844e-06 0
0 0 0
-4.24697e-06 -8.79101e-06 0
-5.81992e-06 -9.20844e-06 0
-1.08398e-05 -3.10058e-05 0
-4.24697e-06 -8.79101e-06 0
-8.11353e-06 -3.07841e-05 0
0 0 0
-4.24697e-06 -8.79101e-06 0
0 0 0
-2.78053e-06 -8.49605e-06 0
-4.24697e-06 -8.79101e-06 0
-8.11353e-06 -3.07841e-05 0
-2.78053e-06 -8.49605e-06 0
-5.39669e-06 -3.06206e-05 0
-1.08398e-05 -3.10058e-05 0
-1.40858e-05 -6.29816e-05 0
-8.11353e-06 -3.07841e-05 0
-1.05324e-05 -6.28278e-05 0
-1.40858e-05 -6.29816e-05 0
-1.61558e-05 -0.000101319 0
-1.05324e-05 -6.28278e-05 0
-1.20987e-05 -0.000101226 0
-8.11353e-06 -3.07841e-05 0
-1.05324e-05 -6.28278e-05 0
-5.39669e-06 -3.06206e-05 0
-7.00877e-06 -6.27195e-05 0
-1.05324e-05 -6.28278e-05 0
-1.20987e-05 -0.000101226 0
-7.00877e-06 -6.27195e-05 0
-8.05617e-06 -0.000101158 0
0 0 0
-2.78053e-06 -8.49605e-06 0
0 0 0
-1.37599e-06 -8.32046e-06 0
-2.78053e-06 -8.49605e-06 0
-5.39669e-06 -3.06206e-05 0
-1.37599e-06 -8.32046e-06 0
-2.69388e-06 -3.05207e-05 0
0 0 0
-1.37599e-06 -8.32046e-06 0
0 0 0
-3.08899e-15 -8.26217e-06 0
-1.37599e-06 -8.32046e-06 0
-2.69388e-06 -3.05207e-05 0
-3.08899e-15 -8.26217e-06 0
-6.31162e-15 -3.0487e-05 0
-5.39669e-06 -3.06206e-05 0
-7.00877e-06 -6.27195e-05 0
-2.69388e-06 -3.05207e-05 0
-3.50088e-06 -6.26549e-05 0
-7.00877e-06 -6.27195e-05 0
-8.05617e-06 -0.000101158 0
-3.50088e-06 -6.26549e-05 0
-4.02507e-06 -0.000101117 0
-2.69388e-06 -3.05207e-05 0
-3.50088e-06 -6.26549e-05 0
-6.31162e-15 -3.0487e-05 0
-6.12351e-15 -6.26334e-05 0
-3.50088e-06 -6.26549e-05 0
-4.02507e-06 -0.000101117 0
-6.12351e-15 -6.26334e-05 0
-1.55686e-14 -0.000101103 0
-1.61558e-05 -0.000101319 0
-1.73778e-05 -0.000143669 0
-1.20987e-05 -0.000101226 0
-1.30173e-05 -0.000143619 0
-1.73778e-05 -0.000143669 0
-1.79434e-05 -0.000188139 0
-1.30173e-05 -0.000143619 0
-1.3448e-05 -0.00018812 0
-1.20987e-05 -0.000101226 0
-1.30173e-05 -0.000143619 0
-8.05617e-06 -0.000101158 0
-8.67097e-06 -0.000143583 0
-1.30173e-05 -0.000143619 0
-1.3448e-05 -0.00018812 0
-8.67097e-06 -0.000143583 0
-8.96072e-06 -0.000188106 0
-1.79434e-05 -0.000188139 0
-1.81044e-05 -0.000233344 0
-1.3448e-05 -0.00018812 0
-1.35755e-05 -0.000233341 0
-1.81044e-05 -0.000233344 0
-1.81215e-05 -0.000278646 0
-1.35755e-05 -0.000233341 0
-1.35912e-05 -0.000278646 0
-1.3448e-05 -0.00018812 0
-1.35755e-05 -0.000233341 0
-8.96072e-06 -0.000188106 0
-9.04903e-06 -0.000233338 0
-1.35755e-05 -0.000233341 0
-1.35912e-05 -0.000278646 0
-9.04903e-06 -0.000233338 0
-9.06079e-06 -0.000278646 0
-8.05617e-06 -0.000101158 0
-8.67097e-06 -0.000143583 0
-4.02507e-06 -0.000101117 0
-4.33334e-06 -0.000143561 0
-8.67097e-06 -0.000143583 0
-8.96072e-06 -0.000188106 0
-4.33334e-06 -0.000143561 0
-4.47897e-06 -0.000188098 0
-4.02507e-06 -0.000101117 0
-4.33334e-06 -0.000143561 0
-1.55686e-14 -0.000101103 0
-1.79313e-14 -0.000143554 0
-4.33334e-06 -0.000143561 0
-4.47897e-06 -0.000188098 0
-1.79313e-14 -0.000143554 0
-1.11214e-14 -0.000188095 0
-8.96072e-06 -0.000188106 0
-9.04903e-06 -0.000233338 0
-4.47897e-06 -0.000188098 0
-4.52411e-06 -0.000233336 0
-9.04903e-06 -0.000233338 0
-9.06079e-06 -0.000278646 0
-4.52411e-06 -0.000233336 0
-4.5304e-06 -0.000278646 0
-4.47897e-06 -0.000188098 0
-4.52411e-06 -0.000233336 0
-1.11214e-14 -0.000188095 0
-8.38444e-15 -0.000233335 0
-4.52411e-06 -0.000233336 0
-4.5304e-06 -0.000278646 0
-8.38444e-15 -0.000233335 0
-1.25753e-14 -0.000278646 0
0 0 0
-3.08899e-15 -8.26217e-06 0
0 0 0
1.37599e-06 -8.32046e-06 0
-3.08899e-15 -8.26217e-06 0
-6.31162e-15 -3.0487e-05 0
1.37599e-06 -8.32046e-06 0
2.69388e-06 -3.05207e-05 0
0 0 0
1.37599e-06 -8.32046e-06 0
0 0 0
2.78053e-06 -8.49605e-06 0
1.37599e-06 -8.32046e-06 0
2.69388e-06 -3.05207e-05 0
2.78053e-06 -8.49605e-06 0
5.39669e-06 -3.06206e-05 0
-6.31162e-15 -3.0487e-05 0
-6.12351e-15 -6.26334e-05 0
2.69388e-06 -3.05207e-05 0
3.50088e-06 -6.26549e-05 0
-6.12351e-15 -6.26334e-05 0
-1.55686e-14 -0.000101103 0
3.50088e-06 -6.26549e-05 0
4.02507e-06 -0.000101117 0
2.69388e-06 -3.05207e-05 0
3.50088e-06 -6.26549e-05 0
5.39669e-06 -3.06206e-05 0
7.00877e-06 -6.27195e-05 0
3.50088e-06 -6.26549e-05 0
4.02507e-06 -0.000101117 0
7.00877e-06 -6.27195e-05 0
8.05617e-06 -0.000101158 0
0 0 0
2.78053e-06 -8.49605e-06 0
0 0 0
4.24697e-06 -8.79101e-06 0
2.78053e-06 -8.49605e-06 0
5.39669e-06 -3.06206e-05 0
4.24697e-06 -8.79101e-06 0
8.11353e-06 -3.07841e-05 0
0 0 0
4.24697e-06 -8.79101e-06 0
0 0 0
5.81992e-06 -9.20844e-06 0
4.24697e-06 -8.79101e-06 0
8.11353e-06 -3.07841e-05 0
5.81992e-06 -9.20844e-06 0
1.08398e-05 -3.10058e-05 0
5.39669e-06 -3.06206e-05 0
7.00877e-06 -6.27195e-05 0
8.11353e-06 -3.07841e-05 0
1.05324e-05 -6.28278e-05 0
7.00877e-06 -6.27195e-05 0
8.05617e-06 -0.000101158 0
1.05324e-05 -6.28278e-05 0
1.20987e-05 -0.000101226 0
8.11353e-06 -3.07841e-05 0
1.05324e-05 -6.28278e-05 0
1.08398e-05 -3.10058e-05 0
1.40858e-05 -6.29816e-05 0
1.05324e-05 -6.28278e-05 0
1.20987e-05 -0.000101226 0
1.40858e-05 -6.29816e-05 0
1.61558e-05 -0.000101319 0
-1.55686e-14 -0.000101103 0
-1.79313e-14 -0.000143554 0
4.02507e-06 -0.000101117 0
4.33334e-06 -0.000143561 0
-1.79313e-14 -0.000143554 0
-1.11214e-14 -0.000188095 0
4.33334e-06 -0.000143561 0
4.47897e-06 -0.000188098 0
4.02507e-06 -0.000101117 0
4.33334e-06 -0.000143561 0
8.05617e-06 -0.000101158 0
8.67097e-06 -0.000143583 0
4.33334e-06 -0.000143561 0
4.47897e-06 -0.000188098 0
8.67097e-06 -0.000143583 0
8.96072e-06 -0.000188106 0
-1.11214e-14 -0.000188095 0
-8.38444e-15 -0.000233335 0
4.47897e-06 -0.000188098 0
4.52411e-06 -0.000233336 0
-8.38444e-15 -0.000233335 0
-1.25753e-14 -0.000278646 0
4.52411e-06 -0.000233336 0
4.5304e-06 -0.000278646 0
4.47897e-06 -0.000188098 0
4.52411e-06 -0.000233336 0
8.96072e-06 -0.000188106 0
9.04903e-06 -0.000233338 0
4.52411e-06 -0.000233336 0
4.5304e-06 -0.000278646 0
9.04903e-06 -0.000233338 0
9.06079e-06 -0.000278646 0
8.05617e-06 -0.000101158 0
8.67097e-06 -0.000143583 0
1.20987e-05 -0.000101226 0
1.30173e-05 -0.000143619 0
8.67097e-06 -0.000143583 0
8.96072e-06 -0.000188106 0
1.30173e-05 -0.000143619 0
1.3448e-05 -0.00018812 0
1.20987e-05 -0.000101226 0
1.30173e-05 -0.000143619 0
1.61558e-05 -0.000101319 0
1.73778e-05 -0.000143669 0
1.30173e-05 -0.000143619 0
1.3448e-05 -0.00018812 0
1.73778e-05 -0.000143669 0
1.79434e-05 -0.000188139 0
8.96072e-06 -0.000188106 0
9.04903e-06 -0.000233338 0
1.3448e-05 -0.00018812 0
1.35755e-05 -0.000233341 0
9.04903e-06 -0.000233338 0
9.06079e-06 -0.000278646 0
1.35755e-05 -0.000233341 0
1.35912e-05 -0.000278646 0
1.3448e-05 -0.00018812 0
1.35755e-05 -0.000233341 0
1.79434e-05 -0.000188139 0
1.81044e-05 -0.000233344 0
1.35755e-05 -0.000233341 0
1.35912e-05 -0.000278646 0
1.81044e-05 -0.000233344 0
1.81215e-05 -0.000278646 0
