# vtk DataFile Version 3.0
#This file was generated by the deal.II library on 2025/3/10 at 16:43:26
ASCII
DATASET UNSTRUCTURED_GRID

FIELD FieldData 1
TIME 1 1 double
5.59312
POINTS 256 double
0 0 0
0.625 0 0
0 0.0625 0
0.625 0.0625 0
0.625 0 0
1.25 0 0
0.625 0.0625 0
1.25 0.0625 0
0 0.0625 0
0.625 0.0625 0
0 0.125 0
0.625 0.125 0
0.625 0.0625 0
1.25 0.0625 0
0.625 0.125 0
1.25 0.125 0
1.25 0 0
1.875 0 0
1.25 0.0625 0
1.875 0.0625 0
1.875 0 0
2.5 0 0
1.875 0.0625 0
2.5 0.0625 0
1.25 0.0625 0
1.875 0.0625 0
1.25 0.125 0
1.875 0.125 0
1.875 0.0625 0
2.5 0.0625 0
1.875 0.125 0
2.5 0.125 0
0 0.125 0
0.625 0.125 0
0 0.1875 0
0.625 0.1875 0
0.625 0.125 0
1.25 0.125 0
0.625 0.1875 0
1.25 0.1875 0
0 0.1875 0
0.625 0.1875 0
0 0.25 0
0.625 0.25 0
0.625 0.1875 0
1.25 0.1875 0
0.625 0.25 0
1.25 0.25 0
1.25 0.125 0
1.875 0.125 0
1.25 0.1875 0
1.875 0.1875 0
1.875 0.125 0
2.5 0.125 0
1.875 0.1875 0
2.5 0.1875 0
1.25 0.1875 0
1.875 0.1875 0
1.25 0.25 0
1.875 0.25 0
1.875 0.1875 0
2.5 0.1875 0
1.875 0.25 0
2.5 0.25 0
2.5 0 0
3.125 0 0
2.5 0.0625 0
3.125 0.0625 0
3.125 0 0
3.75 0 0
3.125 0.0625 0
3.75 0.0625 0
2.5 0.0625 0
3.125 0.0625 0
2.5 0.125 0
3.125 0.125 0
3.125 0.0625 0
3.75 0.0625 0
3.125 0.125 0
3.75 0.125 0
3.75 0 0
4.375 0 0
3.75 0.0625 0
4.375 0.0625 0
4.375 0 0
5 0 0
4.375 0.0625 0
5 0.0625 0
3.75 0.0625 0
4.375 0.0625 0
3.75 0.125 0
4.375 0.125 0
4.375 0.0625 0
5 0.0625 0
4.375 0.125 0
5 0.125 0
2.5 0.125 0
3.125 0.125 0
2.5 0.1875 0
3.125 0.1875 0
3.125 0.125 0
3.75 0.125 0
3.125 0.1875 0
3.75 0.1875 0
2.5 0.1875 0
3.125 0.1875 0
2.5 0.25 0
3.125 0.25 0
3.125 0.1875 0
3.75 0.1875 0
3.125 0.25 0
3.75 0.25 0
3.75 0.125 0
4.375 0.125 0
3.75 0.1875 0
4.375 0.1875 0
4.375 0.125 0
5 0.125 0
4.375 0.1875 0
5 0.1875 0
3.75 0.1875 0
4.375 0.1875 0
3.75 0.25 0
4.375 0.25 0
4.375 0.1875 0
5 0.1875 0
4.375 0.25 0
5 0.25 0
0 0.25 0
0.625 0.25 0
0 0.3125 0
0.625 0.3125 0
0.625 0.25 0
1.25 0.25 0
0.625 0.3125 0
1.25 0.3125 0
0 0.3125 0
0.625 0.3125 0
0 0.375 0
0.625 0.375 0
0.625 0.3125 0
1.25 0.3125 0
0.625 0.375 0
1.25 0.375 0
1.25 0.25 0
1.875 0.25 0
1.25 0.3125 0
1.875 0.3125 0
1.875 0.25 0
2.5 0.25 0
1.875 0.3125 0
2.5 0.3125 0
1.25 0.3125 0
1.875 0.3125 0
1.25 0.375 0
1.875 0.375 0
1.875 0.3125 0
2.5 0.3125 0
1.875 0.375 0
2.5 0.375 0
0 0.375 0
0.625 0.375 0
0 0.4375 0
0.625 0.4375 0
0.625 0.375 0
1.25 0.375 0
0.625 0.4375 0
1.25 0.4375 0
0 0.4375 0
0.625 0.4375 0
0 0.5 0
0.625 0.5 0
0.625 0.4375 0
1.25 0.4375 0
0.625 0.5 0
1.25 0.5 0
1.25 0.375 0
1.875 0.375 0
1.25 0.4375 0
1.875 0.4375 0
1.875 0.375 0
2.5 0.375 0
1.875 0.4375 0
2.5 0.4375 0
1.25 0.4375 0
1.875 0.4375 0
1.25 0.5 0
1.875 0.5 0
1.875 0.4375 0
2.5 0.4375 0
1.875 0.5 0
2.5 0.5 0
2.5 0.25 0
3.125 0.25 0
2.5 0.3125 0
3.125 0.3125 0
3.125 0.25 0
3.75 0.25 0
3.125 0.3125 0
3.75 0.3125 0
2.5 0.3125 0
3.125 0.3125 0
2.5 0.375 0
3.125 0.375 0
3.125 0.3125 0
3.75 0.3125 0
3.125 0.375 0
3.75 0.375 0
3.75 0.25 0
4.375 0.25 0
3.75 0.3125 0
4.375 0.3125 0
4.375 0.25 0
5 0.25 0
4.375 0.3125 0
5 0.3125 0
3.75 0.3125 0
4.375 0.3125 0
3.75 0.375 0
4.375 0.375 0
4.375 0.3125 0
5 0.3125 0
4.375 0.375 0
5 0.375 0
2.5 0.375 0
3.125 0.375 0
2.5 0.4375 0
3.125 0.4375 0
3.125 0.375 0
3.75 0.375 0
3.125 0.4375 0
3.75 0.4375 0
2.5 0.4375 0
3.125 0.4375 0
2.5 0.5 0
3.125 0.5 0
3.125 0.4375 0
3.75 0.4375 0
3.125 0.5 0
3.75 0.5 0
3.75 0.375 0
4.375 0.375 0
3.75 0.4375 0
4.375 0.4375 0
4.375 0.375 0
5 0.375 0
4.375 0.4375 0
5 0.4375 0
3.75 0.4375 0
4.375 0.4375 0
3.75 0.5 0
4.375 0.5 0
4.375 0.4375 0
5 0.4375 0
4.375 0.5 0
5 0.5 0

CELLS 64 320
4	0	1	3	2
4	4	5	7	6
4	8	9	11	10
4	12	13	15	14
4	16	17	19	18
4	20	21	23	22
4	24	25	27	26
4	28	29	31	30
4	32	33	35	34
4	36	37	39	38
4	40	41	43	42
4	44	45	47	46
4	48	49	51	50
4	52	53	55	54
4	56	57	59	58
4	60	61	63	62
4	64	65	67	66
4	68	69	71	70
4	72	73	75	74
4	76	77	79	78
4	80	81	83	82
4	84	85	87	86
4	88	89	91	90
4	92	93	95	94
4	96	97	99	98
4	100	101	103	102
4	104	105	107	106
4	108	109	111	110
4	112	113	115	114
4	116	117	119	118
4	120	121	123	122
4	124	125	127	126
4	128	129	131	130
4	132	133	135	134
4	136	137	139	138
4	140	141	143	142
4	144	145	147	146
4	148	149	151	150
4	152	153	155	154
4	156	157	159	158
4	160	161	163	162
4	164	165	167	166
4	168	169	171	170
4	172	173	175	174
4	176	177	179	178
4	180	181	183	182
4	184	185	187	186
4	188	189	191	190
4	192	193	195	194
4	196	197	199	198
4	200	201	203	202
4	204	205	207	206
4	208	209	211	210
4	212	213	215	214
4	216	217	219	218
4	220	221	223	222
4	224	225	227	226
4	228	229	231	230
4	232	233	235	234
4	236	237	239	238
4	240	241	243	242
4	244	245	247	246
4	248	249	251	250
4	252	253	255	254

CELL_TYPES 64
 9 9 9 9 9 9 9 9 9 9 9 9 9 9 9 9 9 9 9 9 9 9 9 9 9 9 9 9 9 9 9 9 9 9 9 9 9 9 9 9 9 9 9 9 9 9 9 9 9 9 9 9 9 9 9 9 9 9 9 9 9 9 9 9
POINT_DATA 256
VECTORS displacement double
0 0 0
-9.36084e-06 -1.46264e-05 0
0 0 0
-6.84431e-06 -1.39459e-05 0
-9.36084e-06 -1.46264e-05 0
-1.78495e-05 -4.98817e-05 0
-6.84431e-06 -1.39459e-05 0
-1.33702e-05 -4.94879e-05 0
0 0 0
-6.84431e-06 -1.39459e-05 0
0 0 0
-4.48726e-06 -1.34643e-05 0
-6.84431e-06 -1.39459e-05 0
-1.33702e-05 -4.94879e-05 0
-4.48726e-06 -1.34643e-05 0
-8.8981e-06 -4.91993e-05 0
-1.78495e-05 -4.98817e-05 0
-2.38297e-05 -0.000103228 0
-1.33702e-05 -4.94879e-05 0
-1.78179e-05 -0.000102935 0
-2.38297e-05 -0.000103228 0
-2.78626e-05 -0.000168844 0
-1.78179e-05 -0.000102935 0
-2.08622e-05 -0.000168659 0
-1.33702e-05 -4.94879e-05 0
-1.78179e-05 -0.000102935 0
-8.8981e-06 -4.91993e-05 0
-1.18565e-05 -0.000102729 0
-1.78179e-05 -0.000102935 0
-2.08622e-05 -0.000168659 0
-1.18565e-05 -0.000102729 0
-1.389e-05 -0.000168524 0
0 0 0
-4.48726e-06 -1.34643e-05 0
0 0 0
-2.22242e-06 -1.31773e-05 0
-4.48726e-06 -1.34643e-05 0
-8.8981e-06 -4.91993e-05 0
-2.22242e-06 -1.31773e-05 0
-4.44321e-06 -4.90233e-05 0
0 0 0
-2.22242e-06 -1.31773e-05 0
0 0 0
4.02134e-18 -1.3082e-05 0
-2.22242e-06 -1.31773e-05 0
-4.44321e-06 -4.90233e-05 0
4.02134e-18 -1.3082e-05 0
1.19699e-17 -4.89641e-05 0
-8.8981e-06 -4.91993e-05 0
-1.18565e-05 -0.000102729 0
-4.44321e-06 -4.90233e-05 0
-5.92223e-06 -0.000102606 0
-1.18565e-05 -0.000102729 0
-1.389e-05 -0.000168524 0
-5.92223e-06 -0.000102606 0
-6.93937e-06 -0.000168443 0
-4.44321e-06 -4.90233e-05 0
-5.92223e-06 -0.000102606 0
1.19699e-17 -4.89641e-05 0
1.67346e-17 -0.000102565 0
-5.92223e-06 -0.000102606 0
-6.93937e-06 -0.000168443 0
1.67346e-17 -0.000102565 0
2.42554e-17 -0.000168416 0
-2.78626e-05 -0.000168844 0
-3.03347e-05 -0.000242374 0
-2.08622e-05 -0.000168659 0
-2.27233e-05 -0.000242267 0
-3.03347e-05 -0.000242374 0
-3.16287e-05 -0.00032039 0
-2.27233e-05 -0.000242267 0
-2.37031e-05 -0.00032034 0
-2.08622e-05 -0.000168659 0
-2.27233e-05 -0.000242267 0
-1.389e-05 -0.000168524 0
-1.51361e-05 -0.000242191 0
-2.27233e-05 -0.000242267 0
-2.37031e-05 -0.00032034 0
-1.51361e-05 -0.000242191 0
-1.57932e-05 -0.000320305 0
-3.16287e-05 -0.00032039 0
-3.21345e-05 -0.000400431 0
-2.37031e-05 -0.00032034 0
-2.4092e-05 -0.000400417 0
-3.21345e-05 -0.000400431 0
-3.22479e-05 -0.000481022 0
-2.4092e-05 -0.000400417 0
-2.41838e-05 -0.000481019 0
-2.37031e-05 -0.00032034 0
-2.4092e-05 -0.000400417 0
-1.57932e-05 -0.000320305 0
-1.60572e-05 -0.000400406 0
-2.4092e-05 -0.000400417 0
-2.41838e-05 -0.000481019 0
-1.60572e-05 -0.000400406 0
-1.61215e-05 -0.000481016 0
-1.389e-05 -0.000168524 0
-1.51361e-05 -0.000242191 0
-6.93937e-06 -0.000168443 0
-7.56431e-06 -0.000242145 0
-1.51361e-05 -0.000242191 0
-1.57932e-05 -0.000320305 0
-7.56431e-06 -0.000242145 0
-7.89392e-06 -0.000320283 0
-6.93937e-06 -0.000168443 0
-7.56431e-06 -0.000242145 0
2.42554e-17 -0.000168416 0
2.43863e-17 -0.00024213 0
-7.56431e-06 -0.000242145 0
-7.89392e-06 -0.000320283 0
2.43863e-17 -0.00024213 0
2.48093e-17 -0.000320276 0
-1.57932e-05 -0.000320305 0
-1.60572e-05 -0.000400406 0
-7.89392e-06 -0.000320283 0
-8.02731e-06 -0.000400399 0
-1.60572e-05 -0.000400406 0
-1.61215e-05 -0.000481016 0
-8.02731e-06 -0.000400399 0
-8.06038e-06 -0.000481015 0
-7.89392e-06 -0.000320283 0
-8.02731e-06 -0.000400399 0
2.48093e-17 -0.000320276 0
2.54113e-17 -0.000400397 0
-8.02731e-06 -0.000400399 0
-8.06038e-06 -0.000481015 0
2.54113e-17 -0.000400397 0
2.57732e-17 -0.000481014 0
0 0 0
4.02134e-18 -1.3082e-05 0
0 0 0
2.22242e-06 -1.31773e-05 0
4.02134e-18 -1.3082e-05 0
1.19699e-17 -4.89641e-05 0
2.22242e-06 -1.31773e-05 0
4.44321e-06 -4.90233e-05 0
0 0 0
2.22242e-06 -1.31773e-05 0
0 0 0
4.48726e-06 -1.34643e-05 0
2.22242e-06 -1.31773e-05 0
4.44321e-06 -4.90233e-05 0
4.48726e-06 -1.34643e-05 0
8.8981e-06 -4.91993e-05 0
1.19699e-17 -4.89641e-05 0
1.67346e-17 -0.000102565 0
4.44321e-06 -4.90233e-05 0
5.92223e-06 -0.000102606 0
1.67346e-17 -0.000102565 0
2.42554e-17 -0.000168416 0
5.92223e-06 -0.000102606 0
6.93937e-06 -0.000168443 0
4.44321e-06 -4.90233e-05 0
5.92223e-06 -0.000102606 0
8.8981e-06 -4.91993e-05 0
1.18565e-05 -0.000102729 0
5.92223e-06 -0.000102606 0
6.93937e-06 -0.000168443 0
1.18565e-05 -0.000102729 0
1.389e-05 -0.000168524 0
0 0 0
4.48726e-06 -1.34643e-05 0
0 0 0
6.84431e-06 -1.39459e-05 0
4.48726e-06 -1.34643e-05 0
8.8981e-06 -4.91993e-05 0
6.84431e-06 -1.39459e-05 0
1.33702e-05 -4.94879e-05 0
0 0 0
6.84431e-06 -1.39459e-05 0
0 0 0
9.36084e-06 -1.46264e-05 0
6.84431e-06 -1.39459e-05 0
1.33702e-05 -4.94879e-05 0
9.36084e-06 -1.46264e-05 0
1.78495e-05 -4.98817e-05 0
8.8981e-06 -4.91993e-05 0
1.18565e-05 -0.000102729 0
1.33702e-05 -4.94879e-05 0
1.78179e-05 -0.000102935 0
1.18565e-05 -0.000102729 0
1.389e-05 -0.000168524 0
1.78179e-05 -0.000102935 0
2.08622e-05 -0.000168659 0
1.33702e-05 -4.94879e-05 0
1.78179e-05 -0.000102935 0
1.78495e-05 -4.98817e-05 0
2.38297e-05 -0.000103228 0
1.78179e-05 -0.000102935 0
2.08622e-05 -0.000168659 0
2.38297e-05 -0.000103228 0
2.78626e-05 -0.000168844 0
2.42554e-17 -0.000168416 0
2.43863e-17 -0.00024213 0
6.93937e-06 -0.000168443 0
7.56431e-06 -0.000242145 0
2.43863e-17 -0.00024213 0
2.48093e-17 -0.000320276 0
7.56431e-06 -0.000242145 0
7.89392e-06 -0.000320283 0
6.93937e-06 -0.000168443 0
7.56431e-06 -0.000242145 0
1.389e-05 -0.000168524 0
1.51361e-05 -0.000242191 0
7.56431e-06 -0.000242145 0
7.89392e-06 -0.000320283 0
1.51361e-05 -0.000242191 0
1.57932e-05 -0.000320305 0
2.48093e-17 -0.000320276 0
2.54113e-17 -0.000400397 0
7.89392e-06 -0.000320283 0
8.02731e-06 -0.000400399 0
2.54113e-17 -0.000400397 0
2.57732e-17 -0.000481014 0
8.02731e-06 -0.000400399 0
8.06038e-06 -0.000481015 0
7.89392e-06 -0.000320283 0
8.02731e-06 -0.000400399 0
1.57932e-05 -0.000320305 0
1.60572e-05 -0.000400406 0
8.02731e-06 -0.000400399 0
8.06038e-06 -0.000481015 0
1.60572e-05 -0.000400406 0
1.61215e-05 -0.000481016 0
1.389e-05 -0.000168524 0
1.51361e-05 -0.000242191 0
2.08622e-05 -0.000168659 0
2.27233e-05 -0.000242267 0
1.51361e-05 -0.000242191 0
1.57932e-05 -0.000320305 0
2.27233e-05 -0.000242267 0
2.37031e-05 -0.00032034 0
2.08622e-05 -0.000168659 0
2.27233e-05 -0.000242267 0
2.78626e-05 -0.000168844 0
3.03347e-05 -0.000242374 0
2.27233e-05 -0.000242267 0
2.37031e-05 -0.00032034 0
3.03347e-05 -0.000242374 0
3.16287e-05 -0.00032039 0
1.57932e-05 -0.000320305 0
1.60572e-05 -0.000400406 0
2.37031e-05 -0.00032034 0
2.4092e-05 -0.000400417 0
1.60572e-05 -0.000400406 0
1.61215e-05 -0.000481016 0
2.4092e-05 -0.000400417 0
2.41838e-05 -0.000481019 0
2.37031e-05 -0.00032034 0
2.4092e-05 -0.000400417 0
3.16287e-05 -0.00032039 0
3.21345e-05 -0.000400431 0
2.4092e-05 -0.000400417 0
2.41838e-05 -0.000481019 0
3.21345e-05 -0.000400431 0
3.22479e-05 -0.000481022 0
VECTORS velocity double
0 0 0
1.19642e-05 1.87175e-05 0
0 0 0
8.74638e-06 1.78485e-05 0
1.19642e-05 1.87175e-05 0
2.27582e-05 6.3753e-05 0
8.74638e-06 1.78485e-05 0
1.7044e-05 6.32563e-05 0
0 0 0
8.74638e-06 1.78485e-05 0
0 0 0
5.73363e-06 1.72337e-05 0
8.74638e-06 1.78485e-05 0
1.7044e-05 6.32563e-05 0
5.73363e-06 1.72337e-05 0
1.13416e-05 6.28922e-05 0
2.27582e-05 6.3753e-05 0
3.02047e-05 0.000131663 0
1.7044e-05 6.32563e-05 0
2.25784e-05 0.000131306 0
3.02047e-05 0.000131663 0
3.49542e-05 0.000214516 0
2.25784e-05 0.000131306 0
2.61678e-05 0.000214308 0
1.7044e-05 6.32563e-05 0
2.25784e-05 0.000131306 0
1.13416e-05 6.28922e-05 0
1.50214e-05 0.000131056 0
2.25784e-05 0.000131306 0
2.61678e-05 0.000214308 0
1.50214e-05 0.000131056 0
1.74205e-05 0.000214156 0
0 0 0
5.73363e-06 1.72337e-05 0
0 0 0
2.83953e-06 1.68674e-05 0
5.73363e-06 1.72337e-05 0
1.13416e-05 6.28922e-05 0
2.83953e-06 1.68674e-05 0
5.66289e-06 6.26702e-05 0
0 0 0
2.83953e-06 1.68674e-05 0
0 0 0
8.93444e-15 1.67458e-05 0
2.83953e-06 1.68674e-05 0
5.66289e-06 6.26702e-05 0
8.93444e-15 1.67458e-05 0
7.01498e-15 6.25957e-05 0
1.13416e-05 6.28922e-05 0
1.50214e-05 0.000131056 0
5.66289e-06 6.26702e-05 0
7.50221e-06 0.000130906 0
1.50214e-05 0.000131056 0
1.74205e-05 0.000214156 0
7.50221e-06 0.000130906 0
8.70258e-06 0.000214064 0
5.66289e-06 6.26702e-05 0
7.50221e-06 0.000130906 0
7.01498e-15 6.25957e-05 0
-8.21096e-15 0.000130857 0
7.50221e-06 0.000130906 0
8.70258e-06 0.000214064 0
-8.21096e-15 0.000130857 0
1.18357e-14 0.000214033 0
3.49542e-05 0.000214516 0
3.75968e-05 0.00030621 0
2.61678e-05 0.000214308 0
2.81652e-05 0.000306102 0
3.75968e-05 0.00030621 0
3.88463e-05 0.000402348 0
2.81652e-05 0.000306102 0
2.9118e-05 0.000402302 0
2.61678e-05 0.000214308 0
2.81652e-05 0.000306102 0
1.74205e-05 0.000214156 0
1.8762e-05 0.000306025 0
2.81652e-05 0.000306102 0
2.9118e-05 0.000402302 0
1.8762e-05 0.000306025 0
1.94038e-05 0.000402268 0
3.88463e-05 0.000402348 0
3.93292e-05 0.000500354 0
2.9118e-05 0.000402302 0
2.94892e-05 0.000500339 0
3.93292e-05 0.000500354 0
3.94552e-05 0.000598956 0
2.94892e-05 0.000500339 0
2.95885e-05 0.000598952 0
2.9118e-05 0.000402302 0
2.94892e-05 0.000500339 0
1.94038e-05 0.000402268 0
1.96559e-05 0.000500329 0
2.94892e-05 0.000500339 0
2.95885e-05 0.000598952 0
1.96559e-05 0.000500329 0
1.97242e-05 0.000598949 0
1.74205e-05 0.000214156 0
1.8762e-05 0.000306025 0
8.70258e-06 0.000214064 0
9.37662e-06 0.000305978 0
1.8762e-05 0.000306025 0
1.94038e-05 0.000402268 0
9.37662e-06 0.000305978 0
9.69946e-06 0.000402248 0
8.70258e-06 0.000214064 0
9.37662e-06 0.000305978 0
1.18357e-14 0.000214033 0
3.31886e-14 0.000305962 0
9.37662e-06 0.000305978 0
9.69946e-06 0.000402248 0
3.31886e-14 0.000305962 0
-8.64396e-15 0.000402241 0
1.94038e-05 0.000402268 0
1.96559e-05 0.000500329 0
9.69946e-06 0.000402248 0
9.82683e-06 0.000500322 0
1.96559e-05 0.000500329 0
1.97242e-05 0.000598949 0
9.82683e-06 0.000500322 0
9.86165e-06 0.000598947 0
9.69946e-06 0.000402248 0
9.82683e-06 0.000500322 0
-8.64396e-15 0.000402241 0
4.4623e-14 0.00050032 0
9.82683e-06 0.000500322 0
9.86165e-06 0.000598947 0
4.4623e-14 0.00050032 0
2.33404e-14 0.000598946 0
0 0 0
8.93444e-15 1.67458e-05 0
0 0 0
-2.83953e-06 1.68674e-05 0
8.93444e-15 1.67458e-05 0
7.01498e-15 6.25957e-05 0
-2.83953e-06 1.68674e-05 0
-5.66289e-06 6.26702e-05 0
0 0 0
-2.83953e-06 1.68674e-05 0
0 0 0
-5.73363e-06 1.72337e-05 0
-2.83953e-06 1.68674e-05 0
-5.66289e-06 6.26702e-05 0
-5.73363e-06 1.72337e-05 0
-1.13416e-05 6.28922e-05 0
7.01498e-15 6.25957e-05 0
-8.21096e-15 0.000130857 0
-5.66289e-06 6.26702e-05 0
-7.50221e-06 0.000130906 0
-8.21096e-15 0.000130857 0
1.18357e-14 0.000214033 0
-7.50221e-06 0.000130906 0
-8.70258e-06 0.000214064 0
-5.66289e-06 6.26702e-05 0
-7.50221e-06 0.000130906 0
-1.13416e-05 6.28922e-05 0
-1.50214e-05 0.000131056 0
-7.50221e-06 0.000130906 0
-8.70258e-06 0.000214064 0
-1.50214e-05 0.000131056 0
-1.74205e-05 0.000214156 0
0 0 0
-5.73363e-06 1.72337e-05 0
0 0 0
-8.74638e-06 1.78485e-05 0
-5.73363e-06 1.72337e-05 0
-1.13416e-05 6.28922e-05 0
-8.74638e-06 1.78485e-05 0
-1.7044e-05 6.32563e-05 0
0 0 0
-8.74638e-06 1.78485e-05 0
0 0 0
-1.19642e-05 1.87175e-05 0
-8.74638e-06 1.78485e-05 0
-1.7044e-05 6.32563e-05 0
-1.19642e-05 1.87175e-05 0
-2.27582e-05 6.3753e-05 0
-1.13416e-05 6.28922e-05 0
-1.50214e-05 0.000131056 0
-1.7044e-05 6.32563e-05 0
-2.25784e-05 0.000131306 0
-1.50214e-05 0.000131056 0
-1.74205e-05 0.000214156 0
-2.25784e-05 0.000131306 0
-2.61678e-05 0.000214308 0
-1.7044e-05 6.32563e-05 0
-2.25784e-05 0.000131306 0
-2.27582e-05 6.3753e-05 0
-3.02047e-05 0.000131663 0
-2.25784e-05 0.000131306 0
-2.61678e-05 0.000214308 0
-3.02047e-05 0.000131663 0
-3.49542e-05 0.000214516 0
1.18357e-14 0.000214033 0
3.31886e-14 0.000305962 0
-8.70258e-06 0.000214064 0
-9.37662e-06 0.000305978 0
3.31886e-14 0.000305962 0
-8.64396e-15 0.000402241 0
-9.37662e-06 0.000305978 0
-9.69946e-06 0.000402248 0
-8.70258e-06 0.000214064 0
-9.37662e-06 0.000305978 0
-1.74205e-05 0.000214156 0
-1.8762e-05 0.000306025 0
-9.37662e-06 0.000305978 0
-9.69946e-06 0.000402248 0
-1.8762e-05 0.000306025 0
-1.94038e-05 0.000402268 0
-8.64396e-15 0.000402241 0
4.4623e-14 0.00050032 0
-9.69946e-06 0.000402248 0
-9.82683e-06 0.000500322 0
4.4623e-14 0.00050032 0
2.33404e-14 0.000598946 0
-9.82683e-06 0.000500322 0
-9.86165e-06 0.000598947 0
-9.69946e-06 0.000402248 0
-9.82683e-06 0.000500322 0
-1.94038e-05 0.000402268 0
-1.96559e-05 0.000500329 0
-9.82683e-06 0.000500322 0
-9.86165e-06 0.000598947 0
-1.96559e-05 0.000500329 0
-1.97242e-05 0.000598949 0
-1.74205e-05 0.000214156 0
-1.8762e-05 0.000306025 0
-2.61678e-05 0.000214308 0
-2.81652e-05 0.000306102 0
-1.8762e-05 0.000306025 0
-1.94038e-05 0.000402268 0
-2.81652e-05 0.000306102 0
-2.9118e-05 0.000402302 0
-2.61678e-05 0.000214308 0
-2.81652e-05 0.000306102 0
-3.49542e-05 0.000214516 0
-3.75968e-05 0.00030621 0
-2.81652e-05 0.000306102 0
-2.9118e-05 0.000402302 0
-3.75968e-05 0.00030621 0
-3.88463e-05 0.000402348 0
-1.94038e-05 0.000402268 0
-1.96559e-05 0.000500329 0
-2.9118e-05 0.000402302 0
-2.94892e-05 0.000500339 0
-1.96559e-05 0.000500329 0
-1.97242e-05 0.000598949 0
-2.94892e-05 0.000500339 0
-2.95885e-05 0.000598952 0
-2.9118e-05 0.000402302 0
-2.94892e-05 0.000500339 0
-3.88463e-05 0.000402348 0
-3.93292e-05 0.000500354 0
-2.94892e-05 0.000500339 0
-2.95885e-05 0.000598952 0
-3.93292e-05 0.000500354 0
-3.94552e-05 0.000598956 0
