# vtk DataFile Version 3.0
#This file was generated by the deal.II library on 2025/3/10 at 16:33:00
ASCII
DATASET UNSTRUCTURED_GRID

FIELD FieldData 1
TIME 1 1 double
1.57
POINTS 256 double
0 0 0
0.625 0 0
0 0.0625 0
0.625 0.0625 0
0.625 0 0
1.25 0 0
0.625 0.0625 0
1.25 0.0625 0
0 0.0625 0
0.625 0.0625 0
0 0.125 0
0.625 0.125 0
0.625 0.0625 0
1.25 0.0625 0
0.625 0.125 0
1.25 0.125 0
1.25 0 0
1.875 0 0
1.25 0.0625 0
1.875 0.0625 0
1.875 0 0
2.5 0 0
1.875 0.0625 0
2.5 0.0625 0
1.25 0.0625 0
1.875 0.0625 0
1.25 0.125 0
1.875 0.125 0
1.875 0.0625 0
2.5 0.0625 0
1.875 0.125 0
2.5 0.125 0
0 0.125 0
0.625 0.125 0
0 0.1875 0
0.625 0.1875 0
0.625 0.125 0
1.25 0.125 0
0.625 0.1875 0
1.25 0.1875 0
0 0.1875 0
0.625 0.1875 0
0 0.25 0
0.625 0.25 0
0.625 0.1875 0
1.25 0.1875 0
0.625 0.25 0
1.25 0.25 0
1.25 0.125 0
1.875 0.125 0
1.25 0.1875 0
1.875 0.1875 0
1.875 0.125 0
2.5 0.125 0
1.875 0.1875 0
2.5 0.1875 0
1.25 0.1875 0
1.875 0.1875 0
1.25 0.25 0
1.875 0.25 0
1.875 0.1875 0
2.5 0.1875 0
1.875 0.25 0
2.5 0.25 0
2.5 0 0
3.125 0 0
2.5 0.0625 0
3.125 0.0625 0
3.125 0 0
3.75 0 0
3.125 0.0625 0
3.75 0.0625 0
2.5 0.0625 0
3.125 0.0625 0
2.5 0.125 0
3.125 0.125 0
3.125 0.0625 0
3.75 0.0625 0
3.125 0.125 0
3.75 0.125 0
3.75 0 0
4.375 0 0
3.75 0.0625 0
4.375 0.0625 0
4.375 0 0
5 0 0
4.375 0.0625 0
5 0.0625 0
3.75 0.0625 0
4.375 0.0625 0
3.75 0.125 0
4.375 0.125 0
4.375 0.0625 0
5 0.0625 0
4.375 0.125 0
5 0.125 0
2.5 0.125 0
3.125 0.125 0
2.5 0.1875 0
3.125 0.1875 0
3.125 0.125 0
3.75 0.125 0
3.125 0.1875 0
3.75 0.1875 0
2.5 0.1875 0
3.125 0.1875 0
2.5 0.25 0
3.125 0.25 0
3.125 0.1875 0
3.75 0.1875 0
3.125 0.25 0
3.75 0.25 0
3.75 0.125 0
4.375 0.125 0
3.75 0.1875 0
4.375 0.1875 0
4.375 0.125 0
5 0.125 0
4.375 0.1875 0
5 0.1875 0
3.75 0.1875 0
4.375 0.1875 0
3.75 0.25 0
4.375 0.25 0
4.375 0.1875 0
5 0.1875 0
4.375 0.25 0
5 0.25 0
0 0.25 0
0.625 0.25 0
0 0.3125 0
0.625 0.3125 0
0.625 0.25 0
1.25 0.25 0
0.625 0.3125 0
1.25 0.3125 0
0 0.3125 0
0.625 0.3125 0
0 0.375 0
0.625 0.375 0
0.625 0.3125 0
1.25 0.3125 0
0.625 0.375 0
1.25 0.375 0
1.25 0.25 0
1.875 0.25 0
1.25 0.3125 0
1.875 0.3125 0
1.875 0.25 0
2.5 0.25 0
1.875 0.3125 0
2.5 0.3125 0
1.25 0.3125 0
1.875 0.3125 0
1.25 0.375 0
1.875 0.375 0
1.875 0.3125 0
2.5 0.3125 0
1.875 0.375 0
2.5 0.375 0
0 0.375 0
0.625 0.375 0
0 0.4375 0
0.625 0.4375 0
0.625 0.375 0
1.25 0.375 0
0.625 0.4375 0
1.25 0.4375 0
0 0.4375 0
0.625 0.4375 0
0 0.5 0
0.625 0.5 0
0.625 0.4375 0
1.25 0.4375 0
0.625 0.5 0
1.25 0.5 0
1.25 0.375 0
1.875 0.375 0
1.25 0.4375 0
1.875 0.4375 0
1.875 0.375 0
2.5 0.375 0
1.875 0.4375 0
2.5 0.4375 0
1.25 0.4375 0
1.875 0.4375 0
1.25 0.5 0
1.875 0.5 0
1.875 0.4375 0
2.5 0.4375 0
1.875 0.5 0
2.5 0.5 0
2.5 0.25 0
3.125 0.25 0
2.5 0.3125 0
3.125 0.3125 0
3.125 0.25 0
3.75 0.25 0
3.125 0.3125 0
3.75 0.3125 0
2.5 0.3125 0
3.125 0.3125 0
2.5 0.375 0
3.125 0.375 0
3.125 0.3125 0
3.75 0.3125 0
3.125 0.375 0
3.75 0.375 0
3.75 0.25 0
4.375 0.25 0
3.75 0.3125 0
4.375 0.3125 0
4.375 0.25 0
5 0.25 0
4.375 0.3125 0
5 0.3125 0
3.75 0.3125 0
4.375 0.3125 0
3.75 0.375 0
4.375 0.375 0
4.375 0.3125 0
5 0.3125 0
4.375 0.375 0
5 0.375 0
2.5 0.375 0
3.125 0.375 0
2.5 0.4375 0
3.125 0.4375 0
3.125 0.375 0
3.75 0.375 0
3.125 0.4375 0
3.75 0.4375 0
2.5 0.4375 0
3.125 0.4375 0
2.5 0.5 0
3.125 0.5 0
3.125 0.4375 0
3.75 0.4375 0
3.125 0.5 0
3.75 0.5 0
3.75 0.375 0
4.375 0.375 0
3.75 0.4375 0
4.375 0.4375 0
4.375 0.375 0
5 0.375 0
4.375 0.4375 0
5 0.4375 0
3.75 0.4375 0
4.375 0.4375 0
3.75 0.5 0
4.375 0.5 0
4.375 0.4375 0
5 0.4375 0
4.375 0.5 0
5 0.5 0

CELLS 64 320
4	0	1	3	2
4	4	5	7	6
4	8	9	11	10
4	12	13	15	14
4	16	17	19	18
4	20	21	23	22
4	24	25	27	26
4	28	29	31	30
4	32	33	35	34
4	36	37	39	38
4	40	41	43	42
4	44	45	47	46
4	48	49	51	50
4	52	53	55	54
4	56	57	59	58
4	60	61	63	62
4	64	65	67	66
4	68	69	71	70
4	72	73	75	74
4	76	77	79	78
4	80	81	83	82
4	84	85	87	86
4	88	89	91	90
4	92	93	95	94
4	96	97	99	98
4	100	101	103	102
4	104	105	107	106
4	108	109	111	110
4	112	113	115	114
4	116	117	119	118
4	120	121	123	122
4	124	125	127	126
4	128	129	131	130
4	132	133	135	134
4	136	137	139	138
4	140	141	143	142
4	144	145	147	146
4	148	149	151	150
4	152	153	155	154
4	156	157	159	158
4	160	161	163	162
4	164	165	167	166
4	168	169	171	170
4	172	173	175	174
4	176	177	179	178
4	180	181	183	182
4	184	185	187	186
4	188	189	191	190
4	192	193	195	194
4	196	197	199	198
4	200	201	203	202
4	204	205	207	206
4	208	209	211	210
4	212	213	215	214
4	216	217	219	218
4	220	221	223	222
4	224	225	227	226
4	228	229	231	230
4	232	233	235	234
4	236	237	239	238
4	240	241	243	242
4	244	245	247	246
4	248	249	251	250
4	252	253	255	254

CELL_TYPES 64
 9 9 9 9 9 9 9 9 9 9 9 9 9 9 9 9 9 9 9 9 9 9 9 9 9 9 9 9 9 9 9 9 9 9 9 9 9 9 9 9 9 9 9 9 9 9 9 9 9 9 9 9 9 9 9 9 9 9 9 9 9 9 9 9
POINT_DATA 256
VECTORS displacement double
0 0 0
1.41732e-05 2.21721e-05 0
0 0 0
1.03618e-05 2.11424e-05 0
1.41732e-05 2.21721e-05 0
2.69968e-05 7.55278e-05 0
1.03618e-05 2.11424e-05 0
2.02217e-05 7.49339e-05 0
0 0 0
1.03618e-05 2.11424e-05 0
0 0 0
6.79287e-06 2.04138e-05 0
1.03618e-05 2.11424e-05 0
2.02217e-05 7.49339e-05 0
6.79287e-06 2.04138e-05 0
1.34578e-05 7.44984e-05 0
2.69968e-05 7.55278e-05 0
3.60084e-05 0.000156176 0
2.02217e-05 7.49339e-05 0
2.69239e-05 0.000155735 0
3.60084e-05 0.000156176 0
4.20713e-05 0.000255288 0
2.69239e-05 0.000155735 0
3.1501e-05 0.000255009 0
2.02217e-05 7.49339e-05 0
2.69239e-05 0.000155735 0
1.34578e-05 7.44984e-05 0
1.79159e-05 0.000155425 0
2.69239e-05 0.000155735 0
3.1501e-05 0.000255009 0
1.79159e-05 0.000155425 0
2.09734e-05 0.000254808 0
0 0 0
6.79287e-06 2.04138e-05 0
0 0 0
3.36418e-06 1.99796e-05 0
6.79287e-06 2.04138e-05 0
1.34578e-05 7.44984e-05 0
3.36418e-06 1.99796e-05 0
6.72e-06 7.42328e-05 0
0 0 0
3.36418e-06 1.99796e-05 0
0 0 0
8.05142e-18 1.98354e-05 0
3.36418e-06 1.99796e-05 0
6.72e-06 7.42328e-05 0
8.05142e-18 1.98354e-05 0
1.88229e-17 7.41436e-05 0
1.34578e-05 7.44984e-05 0
1.79159e-05 0.000155425 0
6.72e-06 7.42328e-05 0
8.94881e-06 0.00015524 0
1.79159e-05 0.000155425 0
2.09734e-05 0.000254808 0
8.94881e-06 0.00015524 0
1.04782e-05 0.000254686 0
6.72e-06 7.42328e-05 0
8.94881e-06 0.00015524 0
1.88229e-17 7.41436e-05 0
2.9264e-17 0.000155179 0
8.94881e-06 0.00015524 0
1.04782e-05 0.000254686 0
2.9264e-17 0.000155179 0
3.4928e-17 0.000254645 0
4.20713e-05 0.000255288 0
4.57795e-05 0.000366281 0
3.1501e-05 0.000255009 0
3.42929e-05 0.000366121 0
4.57795e-05 0.000366281 0
4.77163e-05 0.000483993 0
3.42929e-05 0.000366121 0
3.57596e-05 0.000483919 0
3.1501e-05 0.000255009 0
3.42929e-05 0.000366121 0
2.09734e-05 0.000254808 0
2.28429e-05 0.000366006 0
3.42929e-05 0.000366121 0
3.57596e-05 0.000483919 0
2.28429e-05 0.000366006 0
2.38264e-05 0.000483866 0
4.77163e-05 0.000483993 0
4.84718e-05 0.000604733 0
3.57596e-05 0.000483919 0
3.63407e-05 0.000604711 0
4.84718e-05 0.000604733 0
4.86408e-05 0.000726292 0
3.63407e-05 0.000604711 0
3.64775e-05 0.000726288 0
3.57596e-05 0.000483919 0
3.63407e-05 0.000604711 0
2.38264e-05 0.000483866 0
2.42208e-05 0.000604695 0
3.63407e-05 0.000604711 0
3.64775e-05 0.000726288 0
2.42208e-05 0.000604695 0
2.43167e-05 0.000726284 0
2.09734e-05 0.000254808 0
2.28429e-05 0.000366006 0
1.04782e-05 0.000254686 0
1.14158e-05 0.000365937 0
2.28429e-05 0.000366006 0
2.38264e-05 0.000483866 0
1.14158e-05 0.000365937 0
1.19092e-05 0.000483833 0
1.04782e-05 0.000254686 0
1.14158e-05 0.000365937 0
3.4928e-17 0.000254645 0
4.24288e-17 0.000365914 0
1.14158e-05 0.000365937 0
1.19092e-05 0.000483833 0
4.24288e-17 0.000365914 0
5.09361e-17 0.000483823 0
2.38264e-05 0.000483866 0
2.42208e-05 0.000604695 0
1.19092e-05 0.000483833 0
1.21085e-05 0.000604685 0
2.42208e-05 0.000604695 0
2.43167e-05 0.000726284 0
1.21085e-05 0.000604685 0
1.21578e-05 0.000726281 0
1.19092e-05 0.000483833 0
1.21085e-05 0.000604685 0
5.09361e-17 0.000483823 0
5.49706e-17 0.000604681 0
1.21085e-05 0.000604685 0
1.21578e-05 0.000726281 0
5.49706e-17 0.000604681 0
5.77269e-17 0.00072628 0
0 0 0
8.05142e-18 1.98354e-05 0
0 0 0
-3.36418e-06 1.99796e-05 0
8.05142e-18 1.98354e-05 0
1.88229e-17 7.41436e-05 0
-3.36418e-06 1.99796e-05 0
-6.72e-06 7.42328e-05 0
0 0 0
-3.36418e-06 1.99796e-05 0
0 0 0
-6.79287e-06 2.04138e-05 0
-3.36418e-06 1.99796e-05 0
-6.72e-06 7.42328e-05 0
-6.79287e-06 2.04138e-05 0
-1.34578e-05 7.44984e-05 0
1.88229e-17 7.41436e-05 0
2.9264e-17 0.000155179 0
-6.72e-06 7.42328e-05 0
-8.94881e-06 0.00015524 0
2.9264e-17 0.000155179 0
3.4928e-17 0.000254645 0
-8.94881e-06 0.00015524 0
-1.04782e-05 0.000254686 0
-6.72e-06 7.42328e-05 0
-8.94881e-06 0.00015524 0
-1.34578e-05 7.44984e-05 0
-1.79159e-05 0.000155425 0
-8.94881e-06 0.00015524 0
-1.04782e-05 0.000254686 0
-1.79159e-05 0.000155425 0
-2.09734e-05 0.000254808 0
0 0 0
-6.79287e-06 2.04138e-05 0
0 0 0
-1.03618e-05 2.11424e-05 0
-6.79287e-06 2.04138e-05 0
-1.34578e-05 7.44984e-05 0
-1.03618e-05 2.11424e-05 0
-2.02217e-05 7.49339e-05 0
0 0 0
-1.03618e-05 2.11424e-05 0
0 0 0
-1.41732e-05 2.21721e-05 0
-1.03618e-05 2.11424e-05 0
-2.02217e-05 7.49339e-05 0
-1.41732e-05 2.21721e-05 0
-2.69968e-05 7.55278e-05 0
-1.34578e-05 7.44984e-05 0
-1.79159e-05 0.000155425 0
-2.02217e-05 7.49339e-05 0
-2.69239e-05 0.000155735 0
-1.79159e-05 0.000155425 0
-2.09734e-05 0.000254808 0
-2.69239e-05 0.000155735 0
-3.1501e-05 0.000255009 0
-2.02217e-05 7.49339e-05 0
-2.69239e-05 0.000155735 0
-2.69968e-05 7.55278e-05 0
-3.60084e-05 0.000156176 0
-2.69239e-05 0.000155735 0
-3.1501e-05 0.000255009 0
-3.60084e-05 0.000156176 0
-4.20713e-05 0.000255288 0
3.4928e-17 0.000254645 0
4.24288e-17 0.000365914 0
-1.04782e-05 0.000254686 0
-1.14158e-05 0.000365937 0
4.24288e-17 0.000365914 0
5.09361e-17 0.000483823 0
-1.14158e-05 0.000365937 0
-1.19092e-05 0.000483833 0
-1.04782e-05 0.000254686 0
-1.14158e-05 0.000365937 0
-2.09734e-05 0.000254808 0
-2.28429e-05 0.000366006 0
-1.14158e-05 0.000365937 0
-1.19092e-05 0.000483833 0
-2.28429e-05 0.000366006 0
-2.38264e-05 0.000483866 0
5.09361e-17 0.000483823 0
5.49706e-17 0.000604681 0
-1.19092e-05 0.000483833 0
-1.21085e-05 0.000604685 0
5.49706e-17 0.000604681 0
5.77269e-17 0.00072628 0
-1.21085e-05 0.000604685 0
-1.21578e-05 0.000726281 0
-1.19092e-05 0.000483833 0
-1.21085e-05 0.000604685 0
-2.38264e-05 0.000483866 0
-2.42208e-05 0.000604695 0
-1.21085e-05 0.000604685 0
-1.21578e-05 0.000726281 0
-2.42208e-05 0.000604695 0
-2.43167e-05 0.000726284 0
-2.09734e-05 0.000254808 0
-2.28429e-05 0.000366006 0
-3.1501e-05 0.000255009 0
-3.42929e-05 0.000366121 0
-2.28429e-05 0.000366006 0
-2.38264e-05 0.000483866 0
-3.42929e-05 0.000366121 0
-3.57596e-05 0.000483919 0
-3.1501e-05 0.000255009 0
-3.42929e-05 0.000366121 0
-4.20713e-05 0.000255288 0
-4.57795e-05 0.000366281 0
-3.42929e-05 0.000366121 0
-3.57596e-05 0.000483919 0
-4.57795e-05 0.000366281 0
-4.77163e-05 0.000483993 0
-2.38264e-05 0.000483866 0
-2.42208e-05 0.000604695 0
-3.57596e-05 0.000483919 0
-3.63407e-05 0.000604711 0
-2.42208e-05 0.000604695 0
-2.43167e-05 0.000726284 0
-3.63407e-05 0.000604711 0
-3.64775e-05 0.000726288 0
-3.57596e-05 0.000483919 0
-3.63407e-05 0.000604711 0
-4.77163e-05 0.000483993 0
-4.84718e-05 0.000604733 0
-3.63407e-05 0.000604711 0
-3.64775e-05 0.000726288 0
-4.84718e-05 0.000604733 0
-4.86408e-05 0.000726292 0
VECTORS velocity double
0 0 0
1.23578e-05 1.83651e-05 0
0 0 0
9.08024e-06 1.74391e-05 0
1.23578e-05 1.83651e-05 0
2.47176e-05 6.57947e-05 0
9.08024e-06 1.74391e-05 0
1.8527e-05 6.51818e-05 0
0 0 0
9.08024e-06 1.74391e-05 0
0 0 0
5.97316e-06 1.67825e-05 0
9.08024e-06 1.74391e-05 0
1.8527e-05 6.51818e-05 0
5.97316e-06 1.67825e-05 0
1.23376e-05 6.47364e-05 0
2.47176e-05 6.57947e-05 0
3.44038e-05 0.000141182 0
1.8527e-05 6.51818e-05 0
2.57314e-05 0.000140686 0
3.44038e-05 0.000141182 0
4.15599e-05 0.000237576 0
2.57314e-05 0.000140686 0
3.11161e-05 0.000237231 0
1.8527e-05 6.51818e-05 0
2.57314e-05 0.000140686 0
1.23376e-05 6.47364e-05 0
1.71248e-05 0.000140336 0
2.57314e-05 0.000140686 0
3.11161e-05 0.000237231 0
1.71248e-05 0.000140336 0
2.07166e-05 0.000236982 0
0 0 0
5.97316e-06 1.67825e-05 0
0 0 0
2.96411e-06 1.63906e-05 0
5.97316e-06 1.67825e-05 0
1.23376e-05 6.47364e-05 0
2.96411e-06 1.63906e-05 0
6.16323e-06 6.44663e-05 0
0 0 0
2.96411e-06 1.63906e-05 0
0 0 0
-9.69757e-16 1.62604e-05 0
2.96411e-06 1.63906e-05 0
6.16323e-06 6.44663e-05 0
-9.69757e-16 1.62604e-05 0
-1.16524e-15 6.43759e-05 0
1.23376e-05 6.47364e-05 0
1.71248e-05 0.000140336 0
6.16323e-06 6.44663e-05 0
8.55428e-06 0.000140127 0
1.71248e-05 0.000140336 0
2.07166e-05 0.000236982 0
8.55428e-06 0.000140127 0
1.03498e-05 0.000236833 0
6.16323e-06 6.44663e-05 0
8.55428e-06 0.000140127 0
-1.16524e-15 6.43759e-05 0
3.00775e-15 0.000140058 0
8.55428e-06 0.000140127 0
1.03498e-05 0.000236833 0
3.00775e-15 0.000140058 0
-7.43989e-15 0.000236783 0
4.15599e-05 0.000237576 0
4.6345e-05 0.000348725 0
3.11161e-05 0.000237231 0
3.47107e-05 0.000348509 0
4.6345e-05 0.000348725 0
4.90932e-05 0.000469076 0
3.47107e-05 0.000348509 0
3.67822e-05 0.000468967 0
3.11161e-05 0.000237231 0
3.47107e-05 0.000348509 0
2.07166e-05 0.000236982 0
2.31182e-05 0.000348354 0
3.47107e-05 0.000348509 0
3.67822e-05 0.000468967 0
2.31182e-05 0.000348354 0
2.45035e-05 0.000468888 0
4.90932e-05 0.000469076 0
5.02665e-05 0.000594018 0
3.67822e-05 0.000468967 0
3.76792e-05 0.000593982 0
5.02665e-05 0.000594018 0
5.05505e-05 0.000720319 0
3.76792e-05 0.000593982 0
3.79073e-05 0.000720311 0
3.67822e-05 0.000468967 0
3.76792e-05 0.000593982 0
2.45035e-05 0.000468888 0
2.51096e-05 0.000593956 0
3.76792e-05 0.000593982 0
3.79073e-05 0.000720311 0
2.51096e-05 0.000593956 0
2.52686e-05 0.000720304 0
2.07166e-05 0.000236982 0
2.31182e-05 0.000348354 0
1.03498e-05 0.000236833 0
1.15525e-05 0.000348261 0
2.31182e-05 0.000348354 0
2.45035e-05 0.000468888 0
1.15525e-05 0.000348261 0
1.22463e-05 0.00046884 0
1.03498e-05 0.000236833 0
1.15525e-05 0.000348261 0
-7.43989e-15 0.000236783 0
-8.34867e-15 0.00034823 0
1.15525e-05 0.000348261 0
1.22463e-05 0.00046884 0
-8.34867e-15 0.00034823 0
2.9843e-15 0.000468824 0
2.45035e-05 0.000468888 0
2.51096e-05 0.000593956 0
1.22463e-05 0.00046884 0
1.25518e-05 0.00059394 0
2.51096e-05 0.000593956 0
2.52686e-05 0.000720304 0
1.25518e-05 0.00059394 0
1.26334e-05 0.000720299 0
1.22463e-05 0.00046884 0
1.25518e-05 0.00059394 0
2.9843e-15 0.000468824 0
6.11666e-15 0.000593935 0
1.25518e-05 0.00059394 0
1.26334e-05 0.000720299 0
6.11666e-15 0.000593935 0
1.86013e-15 0.000720297 0
0 0 0
-9.69757e-16 1.62604e-05 0
0 0 0
-2.96411e-06 1.63906e-05 0
-9.69757e-16 1.62604e-05 0
-1.16524e-15 6.43759e-05 0
-2.96411e-06 1.63906e-05 0
-6.16323e-06 6.44663e-05 0
0 0 0
-2.96411e-06 1.63906e-05 0
0 0 0
-5.97316e-06 1.67825e-05 0
-2.96411e-06 1.63906e-05 0
-6.16323e-06 6.44663e-05 0
-5.97316e-06 1.67825e-05 0
-1.23376e-05 6.47364e-05 0
-1.16524e-15 6.43759e-05 0
3.00775e-15 0.000140058 0
-6.16323e-06 6.44663e-05 0
-8.55428e-06 0.000140127 0
3.00775e-15 0.000140058 0
-7.43989e-15 0.000236783 0
-8.55428e-06 0.000140127 0
-1.03498e-05 0.000236833 0
-6.16323e-06 6.44663e-05 0
-8.55428e-06 0.000140127 0
-1.23376e-05 6.47364e-05 0
-1.71248e-05 0.000140336 0
-8.55428e-06 0.000140127 0
-1.03498e-05 0.000236833 0
-1.71248e-05 0.000140336 0
-2.07166e-05 0.000236982 0
0 0 0
-5.97316e-06 1.67825e-05 0
0 0 0
-9.08024e-06 1.74391e-05 0
-5.97316e-06 1.67825e-05 0
-1.23376e-05 6.47364e-05 0
-9.08024e-06 1.74391e-05 0
-1.8527e-05 6.51818e-05 0
0 0 0
-9.08024e-06 1.74391e-05 0
0 0 0
-1.23578e-05 1.83651e-05 0
-9.08024e-06 1.74391e-05 0
-1.8527e-05 6.51818e-05 0
-1.23578e-05 1.83651e-05 0
-2.47176e-05 6.57947e-05 0
-1.23376e-05 6.47364e-05 0
-1.71248e-05 0.000140336 0
-1.8527e-05 6.51818e-05 0
-2.57314e-05 0.000140686 0
-1.71248e-05 0.000140336 0
-2.07166e-05 0.000236982 0
-2.57314e-05 0.000140686 0
-3.11161e-05 0.000237231 0
-1.8527e-05 6.51818e-05 0
-2.57314e-05 0.000140686 0
-2.47176e-05 6.57947e-05 0
-3.44038e-05 0.000141182 0
-2.57314e-05 0.000140686 0
-3.11161e-05 0.000237231 0
-3.44038e-05 0.000141182 0
-4.15599e-05 0.000237576 0
-7.43989e-15 0.000236783 0
-8.34867e-15 0.00034823 0
-1.03498e-05 0.000236833 0
-1.15525e-05 0.000348261 0
-8.34867e-15 0.00034823 0
2.9843e-15 0.000468824 0
-1.15525e-05 0.000348261 0
-1.22463e-05 0.00046884 0
-1.03498e-05 0.000236833 0
-1.15525e-05 0.000348261 0
-2.07166e-05 0.000236982 0
-2.31182e-05 0.000348354 0
-1.15525e-05 0.000348261 0
-1.22463e-05 0.00046884 0
-2.31182e-05 0.000348354 0
-2.45035e-05 0.000468888 0
2.9843e-15 0.000468824 0
6.11666e-15 0.000593935 0
-1.22463e-05 0.00046884 0
-1.25518e-05 0.00059394 0
6.11666e-15 0.000593935 0
1.86013e-15 0.000720297 0
-1.25518e-05 0.00059394 0
-1.26334e-05 0.000720299 0
-1.22463e-05 0.00046884 0
-1.25518e-05 0.00059394 0
-2.45035e-05 0.000468888 0
-2.51096e-05 0.000593956 0
-1.25518e-05 0.00059394 0
-1.26334e-05 0.000720299 0
-2.51096e-05 0.000593956 0
-2.52686e-05 0.000720304 0
-2.07166e-05 0.000236982 0
-2.31182e-05 0.000348354 0
-3.11161e-05 0.000237231 0
-3.47107e-05 0.000348509 0
-2.31182e-05 0.000348354 0
-2.45035e-05 0.000468888 0
-3.47107e-05 0.000348509 0
-3.67822e-05 0.000468967 0
-3.11161e-05 0.000237231 0
-3.47107e-05 0.000348509 0
-4.15599e-05 0.000237576 0
-4.6345e-05 0.000348725 0
-3.47107e-05 0.000348509 0
-3.67822e-05 0.000468967 0
-4.6345e-05 0.000348725 0
-4.90932e-05 0.000469076 0
-2.45035e-05 0.000468888 0
-2.51096e-05 0.000593956 0
-3.67822e-05 0.000468967 0
-3.76792e-05 0.000593982 0
-2.51096e-05 0.000593956 0
-2.52686e-05 0.000720304 0
-3.76792e-05 0.000593982 0
-3.79073e-05 0.000720311 0
-3.67822e-05 0.000468967 0
-3.76792e-05 0.000593982 0
-4.90932e-05 0.000469076 0
-5.02665e-05 0.000594018 0
-3.76792e-05 0.000593982 0
-3.79073e-05 0.000720311 0
-5.02665e-05 0.000594018 0
-5.05505e-05 0.000720319 0
